chemcompute.org
{'UTCtimestamp': '2022-10-08T13:02:57.330204', 'cluster': 'jetstream2', 'clusterJobNumber': '121695', 'status': 'RUNNING', 'nodeList': 'chemcompute-node-0'}
----- GAMESS execution script 'rungms' -----
This job is running on host chemcompute-node-0.novalocal
under operating system Linux at Sat Oct 8 13:03:01 UTC 2022
SLURM has assigned the following compute nodes to this run:
Available scratch disk space (Kbyte units) at beginning of the job is
Filesystem     1K-blocks     Used Available Use% Mounted on
/dev/sda1       62903276 11564976  51338300  19% /
GAMESS temporary binary files will be written to /scratch/121695
GAMESS supplementary output files will be written to /data/slurm/46/461822
Copying input file 461822.inp to your run's scratch directory...
The generated host list is
chemcompute-node-0.novalocal

 Distributed Data Interface kickoff program.
 Initiating 1 compute processes on 1 nodes to run the following command:
 /data/gamess-2019R1-avx2-ddi/gamess.00.x 461822 

          ******************************************************
          *         GAMESS VERSION = 30 JUN 2019 (R1)          *
          *             FROM IOWA STATE UNIVERSITY             *
          * M.W.SCHMIDT, K.K.BALDRIDGE, J.A.BOATZ, S.T.ELBERT, *
          *   M.S.GORDON, J.H.JENSEN, S.KOSEKI, N.MATSUNAGA,   *
          *          K.A.NGUYEN, S.J.SU, T.L.WINDUS,           *
          *       TOGETHER WITH M.DUPUIS, J.A.MONTGOMERY       *
          *         J.COMPUT.CHEM.  14, 1347-1363(1993)        *
          **************** 64 BIT INTEL VERSION ****************

  SINCE 1993, STUDENTS AND POSTDOCS WORKING AT IOWA STATE UNIVERSITY
  AND ALSO IN THEIR VARIOUS JOBS AFTER LEAVING ISU HAVE MADE IMPORTANT
  CONTRIBUTIONS TO THE CODE:
     IVANA ADAMOVIC, CHRISTINE AIKENS, YURI ALEXEEV, POOJA ARORA,
     ANDREY ASADCHEV, ROB BELL, PRADIPTA BANDYOPADHYAY, JONATHAN BENTZ,
     COLLEEN BERTONI, BRETT BODE, KURT BRORSEN, CALEB CARLIN, GALINA CHABAN,
     WEI CHEN, CHEOL HO CHOI, PAUL DAY, ALBERT DEFUSCO, NUWAN DESILVA,
     TIM DUDLEY, DMITRI FEDOROV, ALEX FINDLATER, GRAHAM FLETCHER, 
     MARK FREITAG, KURT GLAESEMANN, ANASTASIA GUNINA,
     DAN KEMP, GRANT MERRILL, NORIYUKI MINEZAWA, JONATHAN MULLIN,
     TAKESHI NAGATA, SEAN NEDD, HEATHER NETZLOFF, BOSILJKA NJEGIC, RYAN OLSON,
     MIKE PAK, BUU PHAM,
     SPENCER PRUITT, LUKE ROSKOP, JIM SHOEMAKER, LYUDMILA SLIPCHENKO,
     TONY SMITH, SAROM SOK LEANG, JIE SONG, TETSUYA TAKETSUGU, SIMON WEBB,
     PENG XU, SOOHAENG YOO, FEDERICO ZAHARIEV

  ADDITIONAL CODE HAS BEEN PROVIDED BY COLLABORATORS IN OTHER GROUPS:
     IOWA STATE UNIVERSITY:
          JOE IVANIC, AARON WEST, LAIMUTIS BYTAUTAS, KLAUS RUEDENBERG
     UNIVERSITY OF TOKYO: KIMIHIKO HIRAO, TAKAHITO NAKAJIMA,
          TAKAO TSUNEDA, MUNEAKI KAMIYA, SUSUMU YANAGISAWA,
          KIYOSHI YAGI, MAHITO CHIBA, SEIKEN TOKURA, NAOAKI KAWAKAMI
     UNIVERSITY OF AARHUS: FRANK JENSEN
     UNIVERSITY OF IOWA: VISVALDAS KAIRYS, HUI LI
     NATIONAL INST. OF STANDARDS AND TECHNOLOGY: WALT STEVENS, DAVID GARMER
     UNIVERSITY OF PISA: BENEDETTA MENNUCCI, JACOPO TOMASI
     UNIVERSITY OF MEMPHIS: HENRY KURTZ, PRAKASHAN KORAMBATH
     UNIVERSITY OF ALBERTA: TOBY ZENG, MARIUSZ KLOBUKOWSKI
     UNIVERSITY OF NEW ENGLAND: MARK SPACKMAN
     MIE UNIVERSITY: HIROAKI UMEDA
     NAT. INST. OF ADVANCED INDUSTRIAL SCIENCE AND TECHNOLOGY: KAZUO KITAURA
     MICHIGAN STATE UNIVERSITY:
          KAROL KOWALSKI, MARTA WLOCH, JEFFREY GOUR, JESSE LUTZ,
          WEI LI, JUN SHEN, J. EMILIANO DEUSTUA, PIOTR PIECUCH
     UNIVERSITY OF MINNESOTA:
          YINAN SHU
     UNIVERSITY OF SILESIA: MONIKA MUSIAL, STANISLAW KUCHARSKI
     FACULTES UNIVERSITAIRES NOTRE-DAME DE LA PAIX:
          OLIVIER QUINET, BENOIT CHAMPAGNE
     UNIVERSITY OF CALIFORNIA - SANTA BARBARA: BERNARD KIRTMAN
     INSTITUTE FOR MOLECULAR SCIENCE:
          KAZUYA ISHIMURA, MICHIO KATOUDA, AND SHIGERU NAGASE
     UNIVERSITY OF NOTRE DAME: ANNA POMOGAEVA, DAN CHIPMAN
     KYUSHU UNIVERSITY:
          HARUYUKI NAKANO,
          FENG LONG GU, JACEK KORCHOWIEC, MARCIN MAKOWSKI, AND YURIKO AOKI,
          HIROTOSHI MORI AND EISAKU MIYOSHI
     PENNSYLVANIA STATE UNIVERSITY:
          TZVETELIN IORDANOV, CHET SWALINA, JONATHAN SKONE,
          SHARON HAMMES-SCHIFFER
     WASEDA UNIVERSITY:
          MASATO KOBAYASHI, TOMOKO AKAMA, TSUGUKI TOUMA,
          TAKESHI YOSHIKAWA, YASUHIRO IKABATA, JUNJI SEINO,
          YUYA NAKAJIMA, HIROMI NAKAI
     NANJING UNIVERSITY: SHUHUA LI
     UNIVERSITY OF NEBRASKA:
          PEIFENG SU, DEJUN SI, NANDUN THELLAMUREGE, YALI WANG, HUI LI
     UNIVERSITY OF ZURICH: ROBERTO PEVERATI, KIM BALDRIDGE
     N. COPERNICUS UNIVERSITY AND JACKSON STATE UNIVERSITY:
          MARIA BARYSZ
     UNIVERSITY OF COPENHAGEN: Jimmy Kromann, CASPER STEINMANN
     TOKYO INSTITUTE OF TECHNOLOGY: HIROYA NAKATA
     NAGOYA UNIVERSITY: YOSHIO NISHIMOTO, STEPHAN IRLE
     MOSCOW STATE UNIVERSITY: VLADIMIR MIRONOV
     A.N.NESMEYANOV INSTITUTE OF ORGANOELEMENT COMPOUNDS OF RUSSIAN ACADEMY OF SCIENCES:
          IGOR S. GERASIMOV

 EXECUTION OF GAMESS BEGUN Sat Oct  8 13:03:01 2022

            ECHO OF THE FIRST FEW INPUT CARDS -
 INPUT CARD>!                                                                               
 INPUT CARD>!   GAMESS Calculation input file                                               
 INPUT CARD>!                                                                               
 INPUT CARD>!                                                                               
 INPUT CARD> $CONTRL SCFTYP=RHF MAXIT=200 RUNTYP=OPTIMIZE                                   
 INPUT CARD>         COORD=UNIQUE MULT=1                                                    
 INPUT CARD>         ICHARG=0                                                               
 INPUT CARD>         DFTTYP=B3LYP                                                           
 INPUT CARD>         MOLPLT=.FALSE. PLTORB=.FALSE.  $END                                    
 INPUT CARD> $SYSTEM TIMLIM=2879 MWORDS=250  $END                                           
 INPUT CARD>                                                                                
 INPUT CARD> $FORCE METHOD=SEMINUM NVIB=2 $END                                              
 INPUT CARD> $STATPT OPTTOL=0.0005 NSTEP=999 $END                                           
 INPUT CARD> $STATPT IHREP=0 HSSEND=.TRUE.  $END                                            
 INPUT CARD>                                                                                
 INPUT CARD> $DFT    METHOD=GRID  NLEB=590  $END                                            
 INPUT CARD>                                                                                
 INPUT CARD> $BASIS  GBASIS=N21 NGAUSS=3 $END                                               
 INPUT CARD>                                                                                
 INPUT CARD> $SCF    DIRSCF=.T. $END                                                        
 INPUT CARD> $GUESS  GUESS=HUCKEL  $END                                                     
 INPUT CARD>                                                                                
 INPUT CARD> $DATA                                                                          
 INPUT CARD>                                                                                
 INPUT CARD>  C1                                                                            
 INPUT CARD>N     7.0    -1.16827     0.71156     0.11678                                   
 INPUT CARD>C     6.0    -0.07801     0.03470     0.00371                                   
 INPUT CARD>O     8.0     1.09327     0.68847    -0.07887                                   
 INPUT CARD>C     6.0     0.05073    -1.46518    -0.03508                                   
 INPUT CARD>H     1.0    -1.97121     0.07362     0.17463                                   
 INPUT CARD>H     1.0     0.92478     1.64560    -0.03870                                   
 INPUT CARD>H     1.0     0.57589    -1.80612     0.86172                                   
 INPUT CARD>H     1.0     0.61429    -1.76077    -0.92479                                   
 INPUT CARD>H     1.0    -0.93767    -1.93294    -0.07032                                   
 INPUT CARD> $END                                                                           
 INPUT CARD>                                                                                
 INPUT CARD>                                                                                
 INPUT CARD>! Customizations after this line are persisted when using Do More Calculations  
  250000000 WORDS OF MEMORY AVAILABLE

     BASIS OPTIONS
     -------------
     GBASIS=N21          IGAUSS=       3      POLAR=NONE    
     NDFUNC=       0     NFFUNC=       0     DIFFSP=       F
     NPFUNC=       0      DIFFS=       F     BASNAM=        


     RUN TITLE
     ---------
                                                                                 

 THE POINT GROUP OF THE MOLECULE IS C1      
 THE ORDER OF THE PRINCIPAL AXIS IS     0

 ATOM      ATOMIC                      COORDINATES (BOHR)
           CHARGE         X                   Y                   Z
 N           7.0    -2.2077101797        1.3446534238        0.2206822008
 C           6.0    -0.1474175243        0.0655734918        0.0070108834
 O           8.0     2.0659807306        1.3010196508       -0.1490426887
 C           6.0     0.0958657994       -2.7687887227       -0.0662915876
 H           1.0    -3.7250467643        0.1391216272        0.3300028492
 H           1.0     1.7475807989        3.1097330854       -0.0731323957
 H           1.0     1.0882742991       -3.4130719009        1.6284146781
 H           1.0     1.1608397770       -3.3273728274       -1.7475996962
 H           1.0    -1.7719393669       -3.6527269507       -0.1328855315

          INTERNUCLEAR DISTANCES (ANGS.)
          ------------------------------

                1 N          2 C          3 O          4 C          5 H     

   1 N       0.0000000    1.2882512 *  2.2701047 *  2.4994438 *  1.0271449 *
   2 C       1.2882512 *  0.0000000    1.3439239 *  1.5058946 *  1.9012981 *
   3 O       2.2701047 *  1.3439239 *  0.0000000    2.3931184 *  3.1358158  
   4 C       2.4994438 *  1.5058946 *  2.3931184 *  0.0000000    2.5495343 *
   5 H       1.0271449 *  1.9012981 *  3.1358158    2.5495343 *  0.0000000  
   6 H       2.2972730 *  1.8979950 *  0.9726769 *  3.2312426    3.3020280  
   7 H       3.1521013    2.1336318 *  2.7157634 *  1.0937474 *  3.2393261  
   8 H       3.2209942    2.1366104 *  2.6351051 *  1.0938726 *  3.3553720  
   9 H       2.6611206 *  2.1485118 *  3.3161093    1.0940639 *  2.2703499 *

                6 H          7 H          8 H          9 H     

   1 N       2.2972730 *  3.1521013    3.2209942    2.6611206 *
   2 C       1.8979950 *  2.1336318 *  2.1366104 *  2.1485118 *
   3 O       0.9726769 *  2.7157634 *  2.6351051 *  3.3161093  
   4 C       3.2312426    1.0937474 *  1.0938726 *  1.0940639 *
   5 H       3.3020280    3.2393261    3.3553720    2.2703499 *
   6 H       0.0000000    3.5842505    3.5334001    4.0343114  
   7 H       3.5842505    0.0000000    1.7874980 *  1.7820342 *
   8 H       3.5334001    1.7874980 *  0.0000000    1.7799835 *
   9 H       4.0343114    1.7820342 *  1.7799835 *  0.0000000  

  * ... LESS THAN  3.000


     ATOMIC BASIS SET
     ----------------
 THE CONTRACTED PRIMITIVE FUNCTIONS HAVE BEEN UNNORMALIZED
 THE CONTRACTED BASIS FUNCTIONS ARE NOW NORMALIZED TO UNITY

  SHELL TYPE  PRIMITIVE        EXPONENT          CONTRACTION COEFFICIENT(S)

 N         

      1   S       1           242.7660000    0.059865700508
      1   S       2            36.4851000    0.352955002994
      1   S       3             7.8144900    0.706513005993

      2   L       4             5.4252200   -0.413300077430    0.237972016222
      2   L       5             1.1491500    1.224417266851    0.858953058551

      3   L       6             0.2832050    1.000000000000    1.000000000000

 C         

      4   S       7           172.2560000    0.061766907377
      4   S       8            25.9109000    0.358794042852
      4   S       9             5.5333500    0.700713083689

      5   L      10             3.6649800   -0.395895162119    0.236459946619
      5   L      11             0.7705450    1.215834355681    0.860618805716

      6   L      12             0.1958570    1.000000000000    1.000000000000

 O         

      7   S      13           322.0370000    0.059239393389
      7   S      14            48.4308000    0.351499960776
      7   S      15            10.4206000    0.707657921031

      8   L      16             7.4029400   -0.404453583190    0.244586106967
      8   L      17             1.5762000    1.221561761397    0.853955373466

      9   L      18             0.3736840    1.000000000000    1.000000000000

 C         

     10   S      19           172.2560000    0.061766907377
     10   S      20            25.9109000    0.358794042852
     10   S      21             5.5333500    0.700713083689

     11   L      22             3.6649800   -0.395895162119    0.236459946619
     11   L      23             0.7705450    1.215834355681    0.860618805716

     12   L      24             0.1958570    1.000000000000    1.000000000000

 H         

     13   S      25             5.4471780    0.156284978695
     13   S      26             0.8245472    0.904690876670

     14   S      27             0.1831916    1.000000000000

 H         

     15   S      28             5.4471780    0.156284978695
     15   S      29             0.8245472    0.904690876670

     16   S      30             0.1831916    1.000000000000

 H         

     17   S      31             5.4471780    0.156284978695
     17   S      32             0.8245472    0.904690876670

     18   S      33             0.1831916    1.000000000000

 H         

     19   S      34             5.4471780    0.156284978695
     19   S      35             0.8245472    0.904690876670

     20   S      36             0.1831916    1.000000000000

 H         

     21   S      37             5.4471780    0.156284978695
     21   S      38             0.8245472    0.904690876670

     22   S      39             0.1831916    1.000000000000

 TOTAL NUMBER OF BASIS SET SHELLS             =   22
 NUMBER OF CARTESIAN GAUSSIAN BASIS FUNCTIONS =   46
 NUMBER OF ELECTRONS                          =   32
 CHARGE OF MOLECULE                           =    0
 SPIN MULTIPLICITY                            =    1
 NUMBER OF OCCUPIED ORBITALS (ALPHA)          =   16
 NUMBER OF OCCUPIED ORBITALS (BETA )          =   16
 TOTAL NUMBER OF ATOMS                        =    9
 THE NUCLEAR REPULSION ENERGY IS      121.2072308238

 SELECTED MURRAY-HANDY-LAMING RADIAL GRID

 LEGACY BECKE'S FUZZY CELL METHOD

 SELECTED ORIGINAL BECKE'S PARTITION FUNCTION

     LEBEDEV GRID-BASED DFT OPTIONS
     ------------------------------
     DFTTYP=B3LYP   
     NRAD  =      96     NLEB  =     590
     NRAD0 =      24     NLEB0 =     110
     SWOFF =    5.00E-03 (PURE SCF -> DFT)
     SWITCH=    3.00E-04 (COARSE -> TIGHT GRID)
     THRESH=    0.00E+00 GTHRE=    1.00E+00

 GRIMME'S EMPIRICAL DISPERSION CORRECTION= F

     $CONTRL OPTIONS
     ---------------
 SCFTYP=RHF          RUNTYP=OPTIMIZE     EXETYP=RUN     
 MPLEVL=       0     CITYP =NONE         CCTYP =NONE         VBTYP =NONE    
 DFTTYP=B3LYP        TDDFT =NONE    
 MULT  =       1     ICHARG=       0     NZVAR =       0     COORD =UNIQUE  
 PP    =NONE         RELWFN=NONE         LOCAL =NONE         NUMGRD=       F
 ISPHER=      -1     NOSYM =       0     MAXIT =     200     UNITS =ANGS    
 PLTORB=       F     MOLPLT=       F     AIMPAC=       F     FRIEND=        
 NPRINT=       7     IREST =       0     GEOM  =INPUT   
 NORMF =       0     NORMP =       0     ITOL  =      20     ICUT  =       9
 INTTYP=BEST         GRDTYP=BEST         QMTTOL= 1.0E-06

     $SYSTEM OPTIONS
     ---------------
  REPLICATED MEMORY=   250000000 WORDS (ON EVERY NODE).
 DISTRIBUTED MEMDDI=           0 MILLION WORDS IN AGGREGATE,
 MEMDDI DISTRIBUTED OVER   1 PROCESSORS IS           0 WORDS/PROCESSOR.
 TOTAL MEMORY REQUESTED ON EACH PROCESSOR=   250000000 WORDS.
 TIMLIM=        2879.00 MINUTES, OR       2.0 DAYS.
 PARALL= F  BALTYP=  DLB     KDIAG=    0  COREFL= F
 MXSEQ2=     300 MXSEQ3=     150  mem10=         0

          ----------------
          PROPERTIES INPUT
          ----------------

     MOMENTS            FIELD           POTENTIAL          DENSITY
 IEMOM =       1   IEFLD =       0   IEPOT =       0   IEDEN =       0
 WHERE =COMASS     WHERE =NUCLEI     WHERE =NUCLEI     WHERE =NUCLEI  
 OUTPUT=BOTH       OUTPUT=BOTH       OUTPUT=BOTH       OUTPUT=BOTH    
 IEMINT=       0   IEFINT=       0                     IEDINT=       0
                                                       MORB  =       0
          EXTRAPOLATION IN EFFECT
          DIIS IN EFFECT
 ORBITAL PRINTING OPTION: NPREO=     1    46     2     1

     -------------------------------
     INTEGRAL TRANSFORMATION OPTIONS
     -------------------------------
     NWORD  =            0
     CUTOFF = 1.0E-09     MPTRAN =       0
     DIRTRF =       T     AOINTS =DUP     

          ----------------------
          INTEGRAL INPUT OPTIONS
          ----------------------
 NOPK  =       1 NORDER=       0 SCHWRZ=       T

     ------------------------------------------
     THE POINT GROUP IS C1 , NAXIS= 0, ORDER= 1
     ------------------------------------------

     DIMENSIONS OF THE SYMMETRY SUBSPACES ARE
 A   =   46

 ..... DONE SETTING UP THE RUN .....
 STEP CPU TIME =     0.01 TOTAL CPU TIME =          0.0 (      0.0 MIN)
 TOTAL WALL CLOCK TIME=          0.0 SECONDS, CPU UTILIZATION IS    50.00%


          -----------------------------
          STATIONARY POINT LOCATION RUN
          -----------------------------

 OBTAINING INITIAL HESSIAN, HESS=GUESS   
 CARTESIAN COORDINATE OPTIMIZATION USING BADGER'S RULE FORCE CONSTANT GUESS

          PARAMETERS CONTROLLING GEOMETRY SEARCH ARE
          METHOD =QA                  UPHESS =BFGS    
          NNEG   =         0          NFRZ   =         0
          NSTEP  =       999          IFOLOW =         1
          HESS   =GUESS               RESTAR =         F
          IHREP  =         0          HSSEND =         T
          NPRT   =         0          NPUN   =         0
          OPTTOL = 5.000E-04          RMIN   = 1.500E-03
          RMAX   = 1.000E-01          RLIM   = 7.000E-02
          DXMAX  = 3.000E-01          PURIFY =         F
          MOVIE  =         F          TRUPD  =         T
          TRMAX  = 5.000E-01          TRMIN  = 5.000E-02
          ITBMAT =         5          STPT   =         F
          STSTEP = 1.000E-02          PROJCT=          T

 BEGINNING GEOMETRY SEARCH POINT NSERCH=   0 ...

 COORDINATES OF ALL ATOMS ARE (ANGS)
   ATOM   CHARGE       X              Y              Z
 ------------------------------------------------------------
 N           7.0  -1.1682700000   0.7115600000   0.1167800000
 C           6.0  -0.0780100000   0.0347000000   0.0037100000
 O           8.0   1.0932700000   0.6884700000  -0.0788700000
 C           6.0   0.0507300000  -1.4651800000  -0.0350800000
 H           1.0  -1.9712100000   0.0736200000   0.1746300000
 H           1.0   0.9247800000   1.6456000000  -0.0387000000
 H           1.0   0.5758900000  -1.8061200000   0.8617200000
 H           1.0   0.6142900000  -1.7607700000  -0.9247900000
 H           1.0  -0.9376700000  -1.9329400000  -0.0703200000

          ********************
          1 ELECTRON INTEGRALS
          ********************
 ...... END OF ONE-ELECTRON INTEGRALS ......
 STEP CPU TIME =     0.00 TOTAL CPU TIME =          0.0 (      0.0 MIN)
 TOTAL WALL CLOCK TIME=          0.0 SECONDS, CPU UTILIZATION IS    25.00%

          -------------
          GUESS OPTIONS
          -------------
          GUESS =HUCKEL            NORB  =       0          NORDER=       0
          MIX   =       F          PRTMO =       F          PUNMO =       F
          TOLZ  = 1.0E-08          TOLE  = 1.0E-05
          SYMDEN=       F          PURIFY=       F

 INITIAL GUESS ORBITALS GENERATED BY HUCKEL   ROUTINE.
 HUCKEL GUESS REQUIRES     24478 WORDS.

 SYMMETRIES FOR INITIAL GUESS ORBITALS FOLLOW.   BOTH SET(S).
    16 ORBITALS ARE OCCUPIED (    4 CORE ORBITALS).
     5=A        6=A        7=A        8=A        9=A       10=A       11=A   
    12=A       13=A       14=A       15=A       16=A       17=A       18=A   
    19=A       20=A       21=A       22=A       23=A       24=A       25=A   
    26=A   
 ...... END OF INITIAL ORBITAL SELECTION ......
 STEP CPU TIME =     0.01 TOTAL CPU TIME =          0.0 (      0.0 MIN)
 TOTAL WALL CLOCK TIME=          0.1 SECONDS, CPU UTILIZATION IS    40.00%

                    ----------------------
                    AO INTEGRAL TECHNOLOGY
                    ----------------------
     S,P,L SHELL ROTATED AXIS INTEGRALS, REPROGRAMMED BY
        KAZUYA ISHIMURA (IMS) AND JOSE SIERRA (SYNSTAR).
     S,P,D,L SHELL ROTATED AXIS INTEGRALS PROGRAMMED BY
        KAZUYA ISHIMURA (INSTITUTE FOR MOLECULAR SCIENCE).
     S,P,D,F,G SHELL TO TOTAL QUARTET ANGULAR MOMENTUM SUM 5,
        ERIC PROGRAM BY GRAHAM FLETCHER (ELORET AND NASA ADVANCED
        SUPERCOMPUTING DIVISION, AMES RESEARCH CENTER).
     S,P,D,F,G,L SHELL GENERAL RYS QUADRATURE PROGRAMMED BY
        MICHEL DUPUIS (PACIFIC NORTHWEST NATIONAL LABORATORY).

          --------------------
          2 ELECTRON INTEGRALS
          --------------------

 DIRECT SCF METHOD SKIPS INTEGRAL STORAGE ON DISK.
 DIRECT TRANSFORMATION SKIPS AO INTEGRAL STORAGE ON DISK.
  ...... END OF TWO-ELECTRON INTEGRALS .....
 STEP CPU TIME =     0.00 TOTAL CPU TIME =          0.0 (      0.0 MIN)
 TOTAL WALL CLOCK TIME=          0.1 SECONDS, CPU UTILIZATION IS    33.33%

          --------------------------
             R-B3LYP SCF CALCULATION
          --------------------------

     NUCLEAR ENERGY =       121.2072308238
     MAXIT =  200     NPUNCH=    2
     EXTRAP=T  DAMP=F  SHIFT=F  RSTRCT=F  DIIS=T  DEM=F  SOSCF=F
         DENSITY MATRIX CONVERGENCE THRESHOLD=  2.00E-05
     COARSE -> FINE DFT GRID SWITCH THRESHOLD=  3.00E-04 (SWITCH IN $DFT)
                   HF -> DFT SWITCH THRESHOLD=  5.00E-03 (SWOFF IN $DFT)
     MEMORY REQUIRED FOR RHF ITERS=    658753 WORDS.

 DIRECT SCF CALCULATION, SCHWRZ=T   FDIFF=T,  DIRTHR=  0.00E+00 NITDIR=10
 SCHWARZ INEQUALITY OVERHEAD:      1078 INTEGRALS, T=        0.00

 DFT CODE IS SWITCHING FROM THE FINE GRID NRAD= 96,  NLEB=  590
                      TO THE COARSE GRID NRAD0= 24, NLEB0=  110

     EXCHANGE FUNCTIONAL   =B88&HFX   
     CORRELATION FUNCTIONAL=LYP88&VWN5
     DFT THRESHOLD         =.785E-08
     GRID CHANGE THRESHOLD =.300E-03
 FOR AN EULER-MACLAURIN QUADRATURE USING  96 RADIAL POINTS:
 SMALLEST GAUSSIAN PRIMITIVE EXPONENT=        0.1831915800 OF TYPE -S-
 ON ATOM NUMBER   5 HAS RADIAL NORMALIZATION=  1.000000
  LARGEST GAUSSIAN PRIMITIVE EXPONENT=      322.0370000000 OF TYPE -S-
 ON ATOM NUMBER   3 HAS RADIAL NORMALIZATION=  1.000000
 DFT IS SWITCHED OFF, PERFORMING PURE SCF UNTIL SWOFF THRESHOLD IS REACHED.

                                                                                   NONZERO     BLOCKS
 ITER EX DEM     TOTAL ENERGY        E CHANGE  DENSITY CHANGE    DIIS ERROR      INTEGRALS    SKIPPED
   1  0  0     -206.1741700528  -206.1741700528   0.683894698   0.531212997         536896       4856
          * * *   INITIATING DIIS PROCEDURE   * * *
   2  1  0     -206.7055704475    -0.5314003947   0.214467374   0.142389266         536348       5232
   3  2  0     -206.7502631118    -0.0446926643   0.064115670   0.116743005         534709       5746
   4  3  0     -206.7814965330    -0.0312334211   0.039810816   0.013211713         532999       6185
   5  4  0     -206.7823938629    -0.0008973300   0.005941798   0.003136913         528395       6843
   6  5  0     -206.7824459406    -0.0000520777   0.002778181   0.001704720         521894       7613
 CONVERGED TO SWOFF, SO DFT CALCULATION IS NOW SWITCHED ON.
          * * *   INITIATING DIIS PROCEDURE   * * *
   7  6  0     -207.8858596777    -1.1034137371   0.082217563   0.075577047         537077       4754
   8  7  0     -207.9010840193    -0.0152243416   0.060635388   0.031246134         534612       5859
   9  8  0     -207.9025759088    -0.0014918895   0.029321208   0.038848937         532265       6219
  10  9  0     -207.9055352672    -0.0029593584   0.008675198   0.012955895         529883       6630
  11 10  0     -207.9058494410    -0.0003141738   0.001564607   0.003749381         525393       7290
  12 11  0     -207.9058670531    -0.0000176121   0.000375566   0.000637571         516979       8070
  13 12  0     -207.9058677557    -0.0000007026   0.000082787   0.000122390         508809       8718
 DFT CODE IS SWITCHING BACK TO THE FINE GRID
          * * *   INITIATING DIIS PROCEDURE   * * *
  14 13  0     -207.9075787331    -0.0017109773   0.001796098   0.001349947         537139       4711
  15 14  0     -207.9075862528    -0.0000075198   0.000872626   0.000986882         516554       8080
  16 15  0     -207.9075865256    -0.0000002727   0.000438846   0.000993890         513337       8398
  17 16  0     -207.9075878344    -0.0000013089   0.000147048   0.000209308         508087       8818
  18 17  0     -207.9075879141    -0.0000000797   0.000037397   0.000068848         498482       9742
  19 18  0     -207.9075879225    -0.0000000084   0.000007092   0.000012418         488901      10415
  20 19  0     -207.9075879229    -0.0000000004   0.000001844   0.000001387         473551      11689

          -----------------
          DENSITY CONVERGED
          -----------------
     TIME TO FORM FOCK OPERATORS=       6.0 SECONDS (       0.3 SEC/ITER)
     FOCK TIME ON FIRST ITERATION=       0.0, LAST ITERATION=       0.8
     TIME TO SOLVE SCF EQUATIONS=       0.1 SECONDS (       0.0 SEC/ITER)

 FINAL R-B3LYP ENERGY IS     -207.9075879229 AFTER  20 ITERATIONS
 DFT EXCHANGE + CORRELATION ENERGY =       -22.6517055877
 TOTAL ELECTRON NUMBER             =        32.0000016472

          ------------
          EIGENVECTORS
          ------------

                      1          2          3          4          5
                  -19.0584   -14.2085   -10.2140   -10.1290    -1.0738
                     A          A          A          A          A   
    1  N  1  S   -0.000019   0.985089   0.000370   0.000018  -0.038643
    2  N  1  S   -0.000223   0.110760  -0.000329  -0.000343   0.034210
    3  N  1  X   -0.000000   0.001990  -0.001457  -0.000439   0.033308
    4  N  1  Y    0.000729  -0.004523   0.001401   0.000179  -0.020919
    5  N  1  Z    0.000024  -0.000292   0.000156   0.000023  -0.003391
    6  N  1  S    0.000550  -0.081106   0.000985   0.000463   0.104546
    7  N  1  X   -0.003490  -0.015769  -0.003567   0.001774   0.038216
    8  N  1  Y   -0.005149   0.016955  -0.002917   0.002262  -0.002917
    9  N  1  Z    0.000158   0.001827   0.000288  -0.000044  -0.003358
   10  C  2  S   -0.000337  -0.000028   0.985225   0.005516  -0.099853
   11  C  2  S   -0.000311  -0.001412   0.104065  -0.002422   0.112731
   12  C  2  X    0.001432  -0.000109   0.000733  -0.000087   0.070290
   13  C  2  Y    0.000948  -0.000175  -0.000586   0.000799   0.068682
   14  C  2  Z   -0.000099   0.000005  -0.000043   0.000041  -0.003988
   15  C  2  S    0.014406   0.031754  -0.057040   0.024033   0.101985
   16  C  2  X    0.016925  -0.029383  -0.001262   0.000018  -0.018814
   17  C  2  Y    0.012932   0.017862   0.022149  -0.018374  -0.051936
   18  C  2  Z   -0.001148   0.002997   0.000512  -0.000449   0.000391
   19  O  3  S    0.982628   0.000015   0.000278  -0.000014  -0.211780
   20  O  3  S    0.106547  -0.000242   0.001673  -0.000452   0.195584
   21  O  3  X   -0.003992  -0.000198  -0.000540   0.000307  -0.107647
   22  O  3  Y    0.000626   0.000953   0.000640   0.000558   0.024003
   23  O  3  Z    0.000350   0.000049   0.000053  -0.000033   0.009918
   24  O  3  S   -0.056493   0.001617  -0.000688   0.000482   0.662871
   25  O  3  X    0.012915   0.002522   0.004782  -0.001067  -0.127890
   26  O  3  Y    0.001082  -0.005552  -0.002757  -0.000699   0.020063
   27  O  3  Z   -0.001048  -0.000386  -0.000436   0.000138   0.011475
   28  C  4  S   -0.000067  -0.000021  -0.006114   0.986334  -0.016077
   29  C  4  S   -0.000695  -0.000371  -0.003945   0.112661   0.016437
   30  C  4  X    0.000000  -0.000300   0.000261  -0.000007   0.001854
   31  C  4  Y   -0.000237  -0.000305  -0.001051  -0.000023   0.018760
   32  C  4  Z   -0.000052  -0.000018   0.000007   0.000007   0.000192
   33  C  4  S    0.004257   0.004836   0.025632  -0.095739   0.004181
   34  C  4  X   -0.005407   0.008765  -0.002520   0.001059   0.021933
   35  C  4  Y    0.001289   0.002946   0.017273  -0.007792  -0.008933
   36  C  4  Z    0.000710  -0.000535   0.000280  -0.000191  -0.001460
   37  H  5  S   -0.001524   0.002722  -0.001057   0.000256   0.014242
   38  H  5  S    0.000630   0.006962   0.001408   0.000523  -0.003086
   39  H  6  S    0.003456   0.001209   0.001172   0.000253   0.095990
   40  H  6  S    0.004501   0.000295   0.001493   0.001978   0.018029
   41  H  7  S    0.000278  -0.000455  -0.001756  -0.000013   0.004328
   42  H  7  S   -0.000078  -0.001264   0.003043   0.016038  -0.005186
   43  H  8  S    0.000356  -0.000757  -0.001703  -0.000014   0.004259
   44  H  8  S    0.000597  -0.001287   0.002723   0.016052  -0.005546
   45  H  9  S   -0.001093   0.001153  -0.001535   0.000031   0.006730
   46  H  9  S   -0.000969   0.002290   0.001222   0.016195   0.003211

                      6          7          8          9         10
                   -0.8837    -0.7410    -0.6011    -0.5072    -0.4539
                     A          A          A          A          A   
    1  N  1  S   -0.184539   0.072476   0.032394   0.040955   0.058812
    2  N  1  S    0.170134  -0.068570  -0.028126  -0.027127  -0.056156
    3  N  1  X    0.061436  -0.010983   0.093556   0.332532   0.023181
    4  N  1  Y   -0.125066   0.022882   0.027639   0.044849  -0.093885
    5  N  1  Z   -0.008320   0.001648  -0.007674  -0.028514  -0.001307
    6  N  1  S    0.556916  -0.232593  -0.125589  -0.206057  -0.208380
    7  N  1  X    0.061237  -0.014196   0.050612   0.208136   0.031796
    8  N  1  Y   -0.115040   0.027616   0.033402   0.061638  -0.063530
    9  N  1  Z   -0.008187   0.001764  -0.003822  -0.017226  -0.002200
   10  C  2  S   -0.108520  -0.053213  -0.107799  -0.054382  -0.065479
   11  C  2  S    0.124396   0.063235   0.126908   0.072371   0.071274
   12  C  2  X   -0.173438   0.088583   0.144987  -0.173644  -0.116250
   13  C  2  Y    0.032315  -0.160862   0.058832   0.159028  -0.276567
   14  C  2  Z    0.016271  -0.010824  -0.010978   0.019583   0.010657
   15  C  2  S    0.138678   0.111437   0.325319   0.162171   0.239745
   16  C  2  X    0.026077   0.009377   0.046638  -0.103563  -0.059063
   17  C  2  Y   -0.042175  -0.038319  -0.017021   0.125467  -0.241322
   18  C  2  Z   -0.002999  -0.001198  -0.003978   0.013322   0.005659
   19  O  3  S    0.076168   0.017713   0.032722   0.052690  -0.008398
   20  O  3  S   -0.074109  -0.016976  -0.031566  -0.048814   0.004189
   21  O  3  X    0.002675  -0.009073  -0.151932  -0.079104   0.141314
   22  O  3  Y   -0.032166  -0.092803  -0.297946   0.162580   0.099612
   23  O  3  Z   -0.001032  -0.001472   0.004934   0.011505  -0.003124
   24  O  3  S   -0.259777  -0.064217  -0.125320  -0.216371   0.039214
   25  O  3  X    0.003754  -0.001931  -0.129004  -0.070378   0.124982
   26  O  3  Y   -0.013064  -0.071856  -0.246406   0.147718   0.096934
   27  O  3  Z   -0.000700  -0.001777   0.004266   0.010203  -0.001952
   28  C  4  S   -0.039563  -0.190705   0.074641  -0.017891   0.021951
   29  C  4  S    0.039648   0.185466  -0.067261   0.014511  -0.011818
   30  C  4  X   -0.016280   0.006488   0.035490  -0.041514  -0.153417
   31  C  4  Y    0.029227   0.036588   0.105985  -0.055792   0.283262
   32  C  4  Z    0.002051   0.000697  -0.001152   0.005142   0.026801
   33  C  4  S    0.074038   0.544898  -0.275892   0.098344  -0.154149
   34  C  4  X   -0.032794   0.008712   0.036510  -0.035941  -0.109307
   35  C  4  Y   -0.009459   0.014725   0.029809  -0.036575   0.151617
   36  C  4  Z    0.002918   0.000092  -0.003270   0.000706   0.019746
   37  H  5  S    0.097803  -0.041017  -0.075878  -0.225454  -0.024420
   38  H  5  S    0.017868  -0.013660  -0.056498  -0.183797  -0.024138
   39  H  6  S   -0.051604  -0.055964  -0.188577   0.082674   0.062780
   40  H  6  S   -0.013022  -0.031022  -0.128434   0.043533   0.067942
   41  H  7  S    0.015464   0.102533  -0.057865   0.016269  -0.106656
   42  H  7  S   -0.003844   0.004715  -0.025226   0.004039  -0.090924
   43  H  8  S    0.015244   0.102301  -0.053906   0.008625  -0.130157
   44  H  8  S   -0.003000   0.004573  -0.024128  -0.005614  -0.107119
   45  H  9  S    0.018169   0.098342  -0.087597   0.043646  -0.007652
   46  H  9  S   -0.008387   0.006342  -0.042929   0.009070  -0.007382

                     11         12         13         14         15
                   -0.4485    -0.4093    -0.3672    -0.3519    -0.2473
                     A          A          A          A          A   
    1  N  1  S   -0.002270  -0.012062  -0.000064  -0.020816   0.018018
    2  N  1  S    0.002214   0.007984   0.000110   0.013160  -0.015001
    3  N  1  X    0.005510   0.046121   0.014858   0.177865   0.034863
    4  N  1  Y    0.000460  -0.006263  -0.003328  -0.035191  -0.085359
    5  N  1  Z    0.100560  -0.006209   0.132899  -0.017463   0.353327
    6  N  1  S    0.007898   0.076164   0.000083   0.173620  -0.075854
    7  N  1  X    0.003530   0.039239   0.013165   0.162650   0.048126
    8  N  1  Y    0.000337  -0.005986  -0.002699  -0.069752  -0.092101
    9  N  1  Z    0.081322  -0.005072   0.115474  -0.016718   0.408266
   10  C  2  S    0.002381  -0.016308   0.000108   0.021516  -0.003392
   11  C  2  S   -0.003004   0.016936  -0.000120  -0.028990   0.005353
   12  C  2  X    0.023613  -0.066647   0.015116  -0.186741  -0.003905
   13  C  2  Y    0.001117  -0.090631  -0.004036   0.074363   0.017365
   14  C  2  Z    0.218215  -0.000791   0.197850   0.017773   0.184861
   15  C  2  S   -0.006726   0.061461  -0.000159  -0.053436   0.003801
   16  C  2  X    0.018544   0.006341   0.018210   0.045392   0.002579
   17  C  2  Y    0.002215  -0.068241  -0.006780  -0.071307  -0.023343
   18  C  2  Z    0.187085  -0.005925   0.228992  -0.007041   0.158941
   19  O  3  S    0.000362   0.015187   0.000002  -0.082584  -0.002729
   20  O  3  S   -0.000065  -0.010822  -0.000089   0.075847   0.000368
   21  O  3  X    0.010780   0.099186   0.031201   0.370423  -0.046687
   22  O  3  Y   -0.006615   0.102573  -0.009041  -0.204417   0.009053
   23  O  3  Z    0.173248  -0.011370   0.341502  -0.037825  -0.327775
   24  O  3  S   -0.002288  -0.090713   0.000317   0.341951   0.026344
   25  O  3  X    0.011656   0.108715   0.032857   0.402895  -0.060306
   26  O  3  Y   -0.006150   0.103670  -0.009935  -0.189461   0.012140
   27  O  3  Z    0.172613  -0.012686   0.362026  -0.039994  -0.394133
   28  C  4  S   -0.000341  -0.004402  -0.000174   0.013039   0.005234
   29  C  4  S    0.000002   0.007128   0.000023  -0.008447  -0.003267
   30  C  4  X    0.035216   0.347601  -0.015534  -0.011658   0.008772
   31  C  4  Y   -0.011217   0.132006   0.003859  -0.117360  -0.024107
   32  C  4  Z    0.310607  -0.029154  -0.229833   0.001837  -0.039371
   33  C  4  S    0.003714   0.006975   0.000640  -0.137946  -0.045417
   34  C  4  X    0.025679   0.257717  -0.011281  -0.000483  -0.003270
   35  C  4  Y   -0.007092   0.078274   0.002723  -0.113441  -0.032655
   36  C  4  Z    0.229047  -0.024150  -0.220471   0.007123   0.009808
   37  H  5  S    0.002396  -0.033368  -0.001535  -0.099385   0.021662
   38  H  5  S    0.001141  -0.051592  -0.001059  -0.109032   0.021569
   39  H  6  S   -0.001250   0.064278   0.000095  -0.137876  -0.003117
   40  H  6  S   -0.001691   0.069491   0.000672  -0.093387  -0.015695
   41  H  7  S    0.179530   0.078246  -0.152477   0.016593  -0.033392
   42  H  7  S    0.150742   0.064859  -0.130774   0.034620  -0.077746
   43  H  8  S   -0.150029   0.123772   0.136629   0.011904   0.044846
   44  H  8  S   -0.126030   0.104214   0.112108   0.042510   0.108217
   45  H  9  S   -0.024184  -0.264274   0.015694   0.029708  -0.000926
   46  H  9  S   -0.020760  -0.260207   0.016259   0.049437  -0.002451

                     16         17         18         19         20
                   -0.2460     0.0427     0.0981     0.1376     0.1603
                     A          A          A          A          A   
    1  N  1  S   -0.095504   0.000497  -0.055184  -0.040202   0.024378
    2  N  1  S    0.077324  -0.000207   0.039327   0.006483  -0.003649
    3  N  1  X   -0.007145  -0.025577  -0.106444  -0.091597   0.141865
    4  N  1  Y    0.409758   0.009969  -0.025268  -0.144421   0.027360
    5  N  1  Z    0.078110  -0.335672   0.000524   0.003589  -0.000182
    6  N  1  S    0.420170  -0.005151   0.413020   0.523690  -0.291899
    7  N  1  X   -0.042049  -0.036711  -0.286487  -0.135889   0.300805
    8  N  1  Y    0.432018   0.015455  -0.107508  -0.243962   0.057584
    9  N  1  Z    0.092102  -0.517992   0.010480   0.004079  -0.007389
   10  C  2  S    0.019004   0.001480   0.021667  -0.016531   0.022743
   11  C  2  S   -0.029056   0.000146  -0.009617   0.027969   0.023895
   12  C  2  X    0.105430   0.038339  -0.081831   0.066590   0.019094
   13  C  2  Y   -0.115463  -0.009498  -0.065246  -0.059914   0.096117
   14  C  2  Z    0.022327   0.442684   0.015481  -0.004563  -0.013078
   15  C  2  S   -0.032641  -0.020278  -0.083948   0.131808  -0.445315
   16  C  2  X    0.097338   0.045174  -0.131408   0.087485   0.038930
   17  C  2  Y    0.101461  -0.009858   0.065589  -0.390508   0.298224
   18  C  2  Z    0.024451   0.549780   0.030803  -0.014026  -0.030651
   19  O  3  S    0.014807   0.000758  -0.082310   0.053173  -0.014877
   20  O  3  S   -0.000709  -0.000935   0.058361  -0.033039   0.006252
   21  O  3  X    0.094665  -0.017085  -0.101696   0.007702   0.041578
   22  O  3  Y   -0.001609   0.004123   0.142408  -0.183756   0.090579
   23  O  3  Z   -0.070309  -0.187997   0.009434  -0.007840   0.000973
   24  O  3  S   -0.152322  -0.003066   0.656209  -0.460475   0.162275
   25  O  3  X    0.139185  -0.024909  -0.154581  -0.015806   0.048022
   26  O  3  Y   -0.003150   0.003242   0.278222  -0.336709   0.163688
   27  O  3  Z   -0.086842  -0.266399   0.014775  -0.010415   0.007014
   28  C  4  S   -0.028273   0.000009  -0.081385  -0.069819  -0.112782
   29  C  4  S    0.018084   0.000589   0.043152   0.037260   0.051567
   30  C  4  X   -0.073077   0.004668  -0.088922   0.007374   0.251584
   31  C  4  Y    0.133841   0.004256  -0.037424  -0.180178   0.007438
   32  C  4  Z    0.000257   0.022294   0.000100  -0.002444   0.002670
   33  C  4  S    0.242185  -0.003334   1.001341   0.877203   1.494949
   34  C  4  X   -0.064528   0.031626  -0.326041   0.177130   0.836323
   35  C  4  Y    0.166393   0.010337  -0.215299  -0.667199   0.102431
   36  C  4  Z    0.004391   0.232910  -0.003738  -0.020663   0.020943
   37  H  5  S   -0.117227   0.000095  -0.076884  -0.010893   0.060083
   38  H  5  S   -0.109465   0.012390  -0.654440  -0.593587   0.609645
   39  H  6  S    0.015170   0.001824  -0.109047   0.113973  -0.042841
   40  H  6  S    0.081306   0.007640  -0.840485   0.886428  -0.386042
   41  H  7  S   -0.046776  -0.100236   0.005150  -0.045049  -0.039721
   42  H  7  S   -0.083264  -0.398220  -0.258091  -0.687114  -1.083017
   43  H  8  S   -0.042134   0.088713   0.011406  -0.053687  -0.043748
   44  H  8  S   -0.065396   0.348187  -0.222915  -0.701860  -1.102011
   45  H  9  S    0.032783   0.012332  -0.051491   0.024243   0.045446
   46  H  9  S   -0.005407   0.065476  -0.864651  -0.454740   0.441413

                     21         22         23         24         25
                    0.1913     0.1990     0.2560     0.3404     0.4749
                     A          A          A          A          A   
    1  N  1  S   -0.058885   0.053665   0.056976  -0.007233  -0.116861
    2  N  1  S    0.032296  -0.027381  -0.036274  -0.007659   0.048191
    3  N  1  X   -0.083304   0.063586  -0.074528  -0.093348   0.332152
    4  N  1  Y   -0.080009   0.064030   0.127823  -0.134746  -0.047977
    5  N  1  Z   -0.031714  -0.062700   0.009428   0.003232  -0.035683
    6  N  1  S    0.580536  -0.541833  -0.564248   0.324353   1.850172
    7  N  1  X   -0.173791   0.113275  -0.172884  -0.242615   1.340417
    8  N  1  Y   -0.193784   0.171082   0.367830  -0.467937  -0.404148
    9  N  1  Z   -0.091834  -0.144630   0.024337   0.010745  -0.130460
   10  C  2  S   -0.008528  -0.000980  -0.182372  -0.047971   0.054557
   11  C  2  S    0.002450  -0.000603   0.096788   0.037892   0.036559
   12  C  2  X    0.051107  -0.010234   0.096645   0.317384   0.265356
   13  C  2  Y   -0.078668   0.074024  -0.179212   0.376563  -0.256439
   14  C  2  Z    0.091760   0.129062  -0.012952  -0.020411  -0.028594
   15  C  2  S    0.139744  -0.013351   2.377639   0.177139  -1.077741
   16  C  2  X    0.079207  -0.002548   0.137501   1.190779   1.814810
   17  C  2  Y   -0.259314   0.234621  -0.717164   1.106186  -1.662292
   18  C  2  Z    0.241473   0.334712  -0.029926  -0.082634  -0.195150
   19  O  3  S   -0.002347   0.004893   0.034520   0.091217   0.007892
   20  O  3  S   -0.002196   0.001384  -0.024147  -0.052059   0.005053
   21  O  3  X   -0.032009   0.037639   0.142380   0.239532  -0.076180
   22  O  3  Y    0.082943  -0.053977   0.163096   0.176274   0.086626
   23  O  3  Z   -0.056056  -0.075940  -0.006720  -0.011736   0.010482
   24  O  3  S    0.062593  -0.084463  -0.294702  -0.953324  -0.133994
   25  O  3  X   -0.046074   0.064801   0.277827   0.615254  -0.155890
   26  O  3  Y    0.133604  -0.075108   0.381254   0.425797   0.298224
   27  O  3  Z   -0.072449  -0.105427  -0.012973  -0.038055   0.021173
   28  C  4  S    0.064495  -0.054491   0.083998  -0.034177   0.020443
   29  C  4  S   -0.020994   0.019538  -0.022200   0.013527   0.032919
   30  C  4  X    0.160711  -0.139089   0.053106  -0.108419  -0.170859
   31  C  4  Y    0.068334  -0.056334  -0.247278   0.040430   0.059649
   32  C  4  Z   -0.236857  -0.290658   0.007682   0.023514  -0.004601
   33  C  4  S   -0.932197   0.796101  -1.080653   0.617649  -0.808339
   34  C  4  X    0.634422  -0.546944   0.112554  -0.569884  -0.553383
   35  C  4  Y    0.076241  -0.051058  -1.421883   0.575975  -0.889019
   36  C  4  Z   -0.880171  -1.035174   0.008000   0.085985   0.023443
   37  H  5  S   -0.068981   0.067958  -0.000857   0.117095   0.087422
   38  H  5  S   -0.690620   0.614452   0.298276  -0.348531   0.602405
   39  H  6  S    0.018439  -0.022221  -0.035994  -0.038077   0.111025
   40  H  6  S   -0.156199   0.096796  -0.278016  -0.334026  -0.096524
   41  H  7  S    0.019218   0.067057  -0.056341  -0.004743  -0.069820
   42  H  7  S    0.863507   1.057980  -0.180825   0.127881   0.189475
   43  H  8  S   -0.076685  -0.023426  -0.046996  -0.015359  -0.086578
   44  H  8  S   -0.931192  -0.982839  -0.091056   0.264247   0.237447
   45  H  9  S    0.089820  -0.072409  -0.050909   0.119357   0.036466
   46  H  9  S    1.164349  -1.046738  -0.104575  -0.344516  -0.601234

                     26         27         28         29         30
                    0.7062     0.7177     0.7396     0.8308     0.8428
                     A          A          A          A          A   
    1  N  1  S    0.000401   0.000078  -0.052202  -0.002576   0.012482
    2  N  1  S    0.001131  -0.018763   0.022972   0.001294  -0.026674
    3  N  1  X    0.015420   0.013688   0.018388  -0.008110   0.040925
    4  N  1  Y   -0.005070   0.067513   0.054442   0.010099  -0.148695
    5  N  1  Z    0.083253   0.005435  -0.002162   0.144239   0.004792
    6  N  1  S   -0.005612   0.081126   0.322548   0.088758  -0.539983
    7  N  1  X    0.016275  -0.103379   0.375274   0.023391  -0.099484
    8  N  1  Y    0.011432  -0.154253  -0.193599  -0.020993  -0.130247
    9  N  1  Z    0.060242   0.007905  -0.036017   0.156395   0.017438
   10  C  2  S    0.001540  -0.015933  -0.000287  -0.002977   0.031987
   11  C  2  S   -0.001879  -0.026514   0.032916   0.023413  -0.283518
   12  C  2  X    0.085877  -0.330841   0.809776   0.023513   0.066458
   13  C  2  Y   -0.007644  -0.283473  -0.028908   0.055948  -0.949873
   14  C  2  Z    0.802575   0.058483  -0.068787   0.625997   0.018724
   15  C  2  S    0.027728  -0.622692  -0.808240  -0.017121   0.007018
   16  C  2  X   -0.080070   0.410425  -0.551287   0.006989  -0.143269
   17  C  2  Y   -0.027952   0.697380  -0.208838  -0.100434   2.027518
   18  C  2  Z   -0.662894  -0.052601   0.038932  -1.208060  -0.033573
   19  O  3  S   -0.001080   0.014604   0.000356   0.003180  -0.016534
   20  O  3  S    0.001713  -0.020580  -0.023738  -0.005691   0.054500
   21  O  3  X    0.006906  -0.082115   0.127219   0.009370  -0.023228
   22  O  3  Y   -0.006097   0.063100   0.040888  -0.000995  -0.001546
   23  O  3  Z    0.049146   0.010771  -0.007891   0.127335   0.013926
   24  O  3  S    0.013335  -0.186977   0.319778  -0.018442  -0.266155
   25  O  3  X    0.003112   0.034790  -0.052953   0.008221   0.173148
   26  O  3  Y    0.001673  -0.060005  -0.042666   0.007794  -0.021522
   27  O  3  Z    0.084402  -0.000257   0.002820   0.121515  -0.006010
   28  C  4  S   -0.001060   0.030759   0.020962  -0.001141   0.013799
   29  C  4  S    0.004882  -0.110432  -0.066742  -0.000596  -0.037354
   30  C  4  X    0.036523  -0.134073   0.395050  -0.029207   0.088922
   31  C  4  Y    0.027038  -0.885799  -0.437835   0.015481   0.104154
   32  C  4  Z    0.456853   0.013578  -0.042962  -0.735859  -0.056450
   33  C  4  S   -0.018268   0.252013  -0.075315  -0.053173   0.965901
   34  C  4  X   -0.061044   0.176514  -0.657108   0.058625  -0.195759
   35  C  4  Y   -0.050730   1.396171   0.623609  -0.069583   0.480228
   36  C  4  Z   -0.763605  -0.018978   0.069652   1.689035   0.153406
   37  H  5  S    0.019072  -0.150656  -0.065489  -0.054259   0.361869
   38  H  5  S   -0.001962   0.125003  -0.159358   0.028166  -0.289396
   39  H  6  S   -0.010978   0.248863  -0.004105   0.026035  -0.355382
   40  H  6  S    0.014191  -0.289600   0.091351   0.000610  -0.097001
   41  H  7  S    0.380612   0.073025   0.230131  -0.296534   0.035422
   42  H  7  S    0.054887   0.132021   0.096144  -0.414404   0.015148
   43  H  8  S   -0.340472   0.007038   0.289521   0.261484   0.090120
   44  H  8  S   -0.060658   0.129445   0.108548   0.392790   0.082721
   45  H  9  S   -0.060842   0.358322  -0.239329   0.021168   0.066717
   46  H  9  S   -0.007983   0.091206   0.037631   0.014205  -0.022995

                     31         32         33         34         35
                    0.8574     0.9816     1.0106     1.0156     1.0307
                     A          A          A          A          A   
    1  N  1  S   -0.019569   0.025191  -0.010143   0.020503  -0.003882
    2  N  1  S   -0.002369  -0.022580   0.023511  -0.038243   0.010459
    3  N  1  X   -0.011027   0.011557   0.000478  -0.070277   0.062304
    4  N  1  Y    0.132637   0.274489  -0.382097   0.409509  -0.064669
    5  N  1  Z   -0.022185   0.009641  -0.010690   0.067967   0.278134
    6  N  1  S    1.110712  -0.054408  -0.514175  -0.187180   0.072123
    7  N  1  X    0.225405   0.035572  -0.381264   0.119812  -0.035838
    8  N  1  Y   -0.382037  -0.042190   0.072682  -0.188310   0.033983
    9  N  1  Z   -0.022825  -0.007768   0.036155  -0.053376  -0.228133
   10  C  2  S   -0.002387  -0.051137   0.026489   0.004174   0.000166
   11  C  2  S   -0.034897   0.442170  -0.347927  -0.326546   0.051114
   12  C  2  X   -0.584008  -0.078056   0.097591   0.010755  -0.006193
   13  C  2  Y    0.032190  -0.055614  -0.260581   0.024862   0.007539
   14  C  2  Z    0.029003   0.004237  -0.014501   0.021772   0.121454
   15  C  2  S   -0.101020  -0.242795   0.562950   0.038296   0.004843
   16  C  2  X    2.311144  -0.143486   0.048446  -0.495008   0.136593
   17  C  2  Y   -0.284008   0.143914   1.345227   0.377994  -0.132058
   18  C  2  Z   -0.159126   0.015197   0.034245   0.025374  -0.090026
   19  O  3  S    0.022320   0.010071   0.037304   0.002460  -0.001167
   20  O  3  S    0.026248  -0.023131  -0.043809  -0.020776   0.008219
   21  O  3  X   -0.112647   0.193276   0.171755   0.061896  -0.017056
   22  O  3  Y   -0.095124  -0.238848  -0.253935  -0.065593   0.003020
   23  O  3  Z    0.012400  -0.023670  -0.021066  -0.010545  -0.015515
   24  O  3  S   -0.771328   0.140941  -0.283481   0.142004  -0.035581
   25  O  3  X    0.166580  -0.097872   0.180527  -0.037472   0.007430
   26  O  3  Y    0.323618  -0.093622  -0.092983  -0.137751   0.038722
   27  O  3  Z   -0.014267   0.005809  -0.018248   0.006224   0.024797
   28  C  4  S   -0.002086   0.060971  -0.035178  -0.071640   0.013188
   29  C  4  S    0.031793  -0.126774   0.044355   0.086922  -0.011678
   30  C  4  X    0.833744  -0.099385   0.069963  -0.042236   0.046767
   31  C  4  Y    0.005965   0.259229   0.120008  -0.257165   0.022998
   32  C  4  Z   -0.040873  -0.008479   0.021491   0.093497   0.689590
   33  C  4  S   -0.252017   0.207023   0.675618   0.111277  -0.067329
   34  C  4  X   -2.179195   0.130010  -0.293172   0.285399  -0.120900
   35  C  4  Y   -0.306982  -0.123455   0.136698   0.441701  -0.079057
   36  C  4  Z    0.103360   0.018990  -0.019676  -0.101097  -0.811412
   37  H  5  S    0.031744   0.544160  -0.593689   0.728890  -0.086956
   38  H  5  S    0.104205  -0.370701   0.400088  -0.726947   0.110433
   39  H  6  S   -0.009099   0.693347   0.933482   0.345614  -0.063484
   40  H  6  S   -0.097428  -0.516150  -0.957296  -0.303046   0.061184
   41  H  7  S    0.091004   0.488087  -0.158051  -0.620312  -0.709143
   42  H  7  S    0.341812  -0.380266   0.133473   0.451435   1.143628
   43  H  8  S    0.094754   0.487083  -0.119464  -0.369008   0.835562
   44  H  8  S    0.461881  -0.361094   0.080608   0.096719  -1.140184
   45  H  9  S   -0.240389   0.265968  -0.251451  -0.484082   0.139970
   46  H  9  S   -0.823592  -0.031130  -0.053696   0.589616  -0.202979

                     36         37         38         39         40
                    1.0561     1.1767     1.2537     1.3083     1.4795
                     A          A          A          A          A   
    1  N  1  S   -0.020249  -0.000513   0.064574   0.010151  -0.020608
    2  N  1  S    0.056654   0.002339  -0.164830  -0.064887   0.119559
    3  N  1  X   -0.085676  -0.100264   0.660385   0.636563   0.467624
    4  N  1  Y   -0.035202   0.031841  -0.611191   0.337528   0.433600
    5  N  1  Z    0.032000  -0.990270  -0.087284  -0.052559  -0.020328
    6  N  1  S    0.412193  -0.000720  -0.321501  -0.506221  -0.186170
    7  N  1  X    0.125567   0.117836  -0.968083  -1.331084  -1.172229
    8  N  1  Y   -0.173501  -0.034700   1.043705  -0.392350  -0.900801
    9  N  1  Z   -0.042299   1.130573   0.130940   0.114887   0.052340
   10  C  2  S   -0.002170  -0.000016   0.006815   0.019701   0.001762
   11  C  2  S    0.018110  -0.004942   0.330308  -1.041517   0.854580
   12  C  2  X   -0.228461   0.012029  -0.006297   0.140521   0.085604
   13  C  2  Y   -0.059839  -0.003685   0.119412   0.125670  -0.307325
   14  C  2  Z    0.006967   0.169077   0.006354  -0.010468  -0.026999
   15  C  2  S   -0.164010  -0.014306   0.431254   2.494615  -0.970772
   16  C  2  X    0.907066  -0.064504  -0.747931  -0.263895  -0.050842
   17  C  2  Y    0.088337   0.009340  -0.138345   0.494871   1.721864
   18  C  2  Z   -0.056435  -0.576955   0.040407   0.030548   0.118677
   19  O  3  S    0.017819  -0.000493  -0.013857   0.037001   0.008566
   20  O  3  S   -0.028687   0.000081   0.046512  -0.052440  -0.021597
   21  O  3  X   -0.059495   0.014724   0.000002  -0.328989  -0.002648
   22  O  3  Y    0.070181  -0.001381   0.020042   0.008993  -0.233557
   23  O  3  Z   -0.008466   0.143925   0.011109   0.022541   0.133500
   24  O  3  S   -0.341208   0.008808   0.205567  -0.476537  -0.155328
   25  O  3  X    0.103583  -0.008559  -0.050070   0.584969   0.170857
   26  O  3  Y    0.130837  -0.002802  -0.091447   0.064827   0.211982
   27  O  3  Z    0.001299  -0.022702  -0.004432  -0.042584  -0.160661
   28  C  4  S   -0.007280   0.000512  -0.005322   0.027033  -0.037679
   29  C  4  S    0.033557  -0.010077   0.157194  -0.293947   0.785101
   30  C  4  X   -0.582383  -0.028069   0.060350  -0.082254  -0.045809
   31  C  4  Y   -0.106479  -0.004163  -0.227099   0.132507   0.006408
   32  C  4  Z    0.014180   0.145095  -0.038435  -0.011323   0.013337
   33  C  4  S   -0.018973   0.015879  -0.592178   0.348603  -0.309004
   34  C  4  X    0.335960   0.080948   0.065748   0.253313   0.029438
   35  C  4  Y    0.103266   0.008804   0.320492  -0.436042   0.906936
   36  C  4  Z    0.008629  -0.001620   0.079581   0.019099  -0.040774
   37  H  5  S   -0.083046   0.004748   0.563453  -0.092839  -0.451653
   38  H  5  S    0.055918  -0.001878  -0.737887  -0.675028  -0.296730
   39  H  6  S   -0.127216  -0.002537   0.053777   0.105880  -0.160544
   40  H  6  S    0.013928   0.003354   0.031504  -0.133667  -0.013805
   41  H  7  S    0.381290  -0.238720  -0.035394   0.203099  -0.141531
   42  H  7  S   -0.495676   0.270086   0.125454  -0.455588   0.518571
   43  H  8  S    0.483385   0.245799  -0.030907   0.192713  -0.156505
   44  H  8  S   -0.604255  -0.326573   0.203149  -0.411151   0.469002
   45  H  9  S   -1.021875  -0.001335  -0.187681   0.071025  -0.111718
   46  H  9  S    1.244608   0.047487   0.470577  -0.045079   0.560900

                     41         42         43         44         45
                    1.5004     1.6405     1.8184     1.9548     2.6200
                     A          A          A          A          A   
    1  N  1  S   -0.002766   0.014049  -0.020912  -0.005693  -0.015645
    2  N  1  S    0.016109   0.006781   0.229816   0.052318  -1.915150
    3  N  1  X    0.056972  -0.308298  -0.035283   0.113203  -0.132169
    4  N  1  Y    0.057595  -0.159688  -0.125943   0.037804   0.153662
    5  N  1  Z   -0.133969   0.020668  -0.000196  -0.006614   0.016711
    6  N  1  S   -0.017359  -0.323115   0.224975  -0.104449   4.097993
    7  N  1  X   -0.139981   0.483250   0.440086  -0.427317   1.061139
    8  N  1  Y   -0.130244   0.367588   0.323678  -0.402525  -1.010782
    9  N  1  Z    0.320332  -0.029541  -0.030117   0.024513  -0.121070
   10  C  2  S    0.000852  -0.021404  -0.012813   0.045102   0.018111
   11  C  2  S    0.132312   0.214233  -0.503420   0.840248   0.071121
   12  C  2  X    0.019438   0.230794  -0.001368   0.055470   0.076317
   13  C  2  Y   -0.047803   0.048524   0.194054  -0.110174  -0.049135
   14  C  2  Z    0.108250  -0.016729   0.004445  -0.009042  -0.007972
   15  C  2  S   -0.172782   0.544499   1.388772  -2.533422  -1.956505
   16  C  2  X   -0.052946  -0.112778   0.734154  -0.111665   1.846700
   17  C  2  Y    0.272541   0.018499  -1.672606   2.135084  -1.184643
   18  C  2  Z   -0.614791   0.006623  -0.110338   0.060833  -0.188493
   19  O  3  S    0.001005   0.042434  -0.019271   0.011822   0.001927
   20  O  3  S   -0.003067  -0.190289   0.056125  -0.141539  -0.114313
   21  O  3  X   -0.081802  -0.872742   0.178063  -0.181206   0.059318
   22  O  3  Y   -0.004639  -0.242294  -0.904956  -0.205994  -0.189557
   23  O  3  Z   -0.994881   0.063598  -0.040491   0.015876  -0.011317
   24  O  3  S   -0.020103   0.078798  -0.000551   0.189509   0.085601
   25  O  3  X    0.114631   1.154832  -0.252657   0.312495  -0.256523
   26  O  3  Y   -0.003132   0.340853   1.679386   0.157361   0.583383
   27  O  3  Z    1.115243  -0.083921   0.068102  -0.029728   0.039355
   28  C  4  S   -0.005497   0.007728   0.035196  -0.080171  -0.001440
   29  C  4  S    0.099159   0.464810   0.092183  -1.887961   0.028623
   30  C  4  X    0.003342   0.002328  -0.128592  -0.004481  -0.008318
   31  C  4  Y    0.001694  -0.020428  -0.220424   0.007094   0.005258
   32  C  4  Z   -0.059966   0.000923  -0.013046   0.005669   0.006072
   33  C  4  S   -0.015476  -0.935565  -1.510945   5.103272  -0.351293
   34  C  4  X   -0.004318   0.062882   0.297919  -0.089316  -0.508473
   35  C  4  Y    0.135433  -0.015498  -0.565343   1.142474  -0.193461
   36  C  4  Z    0.392641  -0.007269   0.029383   0.011589   0.023278
   37  H  5  S   -0.059435   0.178357   0.126904  -0.152564  -0.331182
   38  H  5  S   -0.047081   0.211294   0.213525  -0.081966  -0.150259
   39  H  6  S   -0.022923   0.237930  -0.554787  -0.063516  -0.206932
   40  H  6  S   -0.002609  -0.439245  -0.213720  -0.248322  -0.043427
   41  H  7  S   -0.074654   0.036105   0.095893  -0.346555   0.028684
   42  H  7  S   -0.051197   0.174203  -0.124363  -0.501508   0.080109
   43  H  8  S    0.012854   0.037529   0.074454  -0.345335   0.051503
   44  H  8  S    0.217716   0.165290  -0.048677  -0.523828   0.068228
   45  H  9  S   -0.004572   0.074195   0.104607  -0.319660  -0.085643
   46  H  9  S    0.061362   0.167703   0.191956  -0.534220  -0.126811

                     46
                    3.0953
                     A   
    1  N  1  S    0.000199
    2  N  1  S    0.131614
    3  N  1  X    0.021298
    4  N  1  Y   -0.074370
    5  N  1  Z   -0.004462
    6  N  1  S   -0.220169
    7  N  1  X    0.185023
    8  N  1  Y    0.422530
    9  N  1  Z   -0.004386
   10  C  2  S    0.031355
   11  C  2  S   -0.056212
   12  C  2  X   -0.154974
   13  C  2  Y   -0.065931
   14  C  2  Z    0.011713
   15  C  2  S   -0.581609
   16  C  2  X   -1.026211
   17  C  2  Y   -0.928966
   18  C  2  Z    0.066776
   19  O  3  S    0.055173
   20  O  3  S   -1.741035
   21  O  3  X    0.237089
   22  O  3  Y    0.038671
   23  O  3  Z   -0.018025
   24  O  3  S    2.693972
   25  O  3  X   -0.863511
   26  O  3  Y   -0.107014
   27  O  3  Z    0.068527
   28  C  4  S    0.008527
   29  C  4  S    0.135405
   30  C  4  X    0.015105
   31  C  4  Y    0.007332
   32  C  4  Z    0.002717
   33  C  4  S   -0.576989
   34  C  4  X    0.332241
   35  C  4  Y   -0.162098
   36  C  4  Z   -0.044138
   37  H  5  S    0.146306
   38  H  5  S   -0.024565
   39  H  6  S   -0.312427
   40  H  6  S   -0.098960
   41  H  7  S   -0.004656
   42  H  7  S    0.040030
   43  H  8  S   -0.011364
   44  H  8  S    0.004213
   45  H  9  S    0.107208
   46  H  9  S    0.067123
 ...... END OF RHF CALCULATION ......
 STEP CPU TIME =     6.23 TOTAL CPU TIME =          6.2 (      0.1 MIN)
 TOTAL WALL CLOCK TIME=          6.4 SECONDS, CPU UTILIZATION IS    97.81%

     ---------------------------------------------------------------------
     PROPERTIES FOR THE B3LYP    DFT FUNCTIONAL (RHF  TYPE) DENSITY MATRIX
     ---------------------------------------------------------------------

          -----------------
          ENERGY COMPONENTS
          -----------------

         WAVEFUNCTION NORMALIZATION =       1.0000000000

                ONE ELECTRON ENERGY =    -522.1030990211
                TWO ELECTRON ENERGY =     192.9882802744
           NUCLEAR REPULSION ENERGY =     121.2072308238
                                      ------------------
                       TOTAL ENERGY =    -207.9075879229

 ELECTRON-ELECTRON POTENTIAL ENERGY =     192.9882802744
  NUCLEUS-ELECTRON POTENTIAL ENERGY =    -728.5265204404
   NUCLEUS-NUCLEUS POTENTIAL ENERGY =     121.2072308238
                                      ------------------
             TOTAL POTENTIAL ENERGY =    -414.3310093423
               TOTAL KINETIC ENERGY =     206.4234214194
                 VIRIAL RATIO (V/T) =       2.0071899133

          ---------------------------------------
          MULLIKEN AND LOWDIN POPULATION ANALYSES
          ---------------------------------------

     ATOMIC MULLIKEN POPULATION IN EACH MOLECULAR ORBITAL

                      1          2          3          4          5

                  2.000000   2.000000   2.000000   2.000000   2.000000

    1            -0.000037   1.986798  -0.000365  -0.000007   0.087328
    2             0.005155   0.011862   1.994165   0.006735   0.230681
    3             1.994011  -0.000011  -0.000650   0.000006   1.579994
    4            -0.000003  -0.000011   0.006554   1.983566   0.003494
    5             0.000000   0.001351   0.000063   0.000004   0.000613
    6             0.000872   0.000004   0.000068   0.000002   0.098775
    7            -0.000000  -0.000001   0.000073   0.003220  -0.000662
    8             0.000002  -0.000001   0.000064   0.003222  -0.000772
    9            -0.000000   0.000009   0.000028   0.003252   0.000549

                      6          7          8          9         10

                  2.000000   2.000000   2.000000   2.000000   2.000000

    1             1.286875   0.146105   0.098798   0.811904   0.176111
    2             0.370406   0.299539   0.354330   0.328768   0.636293
    3             0.167772   0.081220   0.832442   0.324287   0.184839
    4             0.063852   1.216472   0.266315   0.051591   0.703130
    5             0.090572   0.013835   0.055458   0.425994   0.004717
    6             0.019672   0.026783   0.261764   0.043889   0.029184
    7             0.000585   0.073695   0.030189   0.001630   0.107771
    8             0.000696   0.073477   0.026444   0.000145   0.157049
    9            -0.000429   0.068875   0.074261   0.011793   0.000907

                     11         12         13         14         15

                  2.000000   2.000000   2.000000   2.000000   2.000000

    1             0.085551   0.016156   0.140428   0.174428   1.048587
    2             0.431861   0.061214   0.323995   0.127676   0.202124
    3             0.235253   0.121646   0.839548   1.424781   0.702188
    4             0.748530   0.955451   0.375094   0.083543   0.008097
    5             0.000030   0.017214   0.000014   0.076772   0.002373
    6             0.000013   0.032953   0.000001   0.094373   0.000782
    7             0.290139   0.048525   0.178057   0.004759   0.012183
    8             0.203382   0.124495   0.140815   0.004775   0.023680
    9             0.005240   0.622345   0.002048   0.008893  -0.000015

                     16

                  2.000000

    1             1.550533
    2             0.101431
    3             0.079990
    4             0.138312
    5             0.067066
    6             0.021625
    7             0.021384
    8             0.015555
    9             0.004103

               ----- POPULATIONS IN EACH AO -----
                             MULLIKEN      LOWDIN
              1  N  1  S      1.98804     1.97956
              2  N  1  S      0.39489     0.52525
              3  N  1  X      0.57186     0.53586
              4  N  1  Y      0.69981     0.69059
              5  N  1  Z      0.54305     0.53467
              6  N  1  S      1.43536     0.87193
              7  N  1  X      0.46103     0.59342
              8  N  1  Y      0.80370     0.87394
              9  N  1  Z      0.71145     0.73098
             10  C  2  S      1.98449     1.97371
             11  C  2  S      0.42780     0.42772
             12  C  2  X      0.58763     0.55660
             13  C  2  Y      0.60027     0.56747
             14  C  2  Z      0.44272     0.42072
             15  C  2  S      0.58765     0.51354
             16  C  2  X      0.04341     0.38863
             17  C  2  Y      0.29575     0.47697
             18  C  2  Z      0.51652     0.53238
             19  O  3  S      1.98492     1.97874
             20  O  3  S      0.42266     0.57534
             21  O  3  X      0.71943     0.71226
             22  O  3  Y      0.62373     0.59199
             23  O  3  Z      0.82304     0.82729
             24  O  3  S      1.50760     0.99712
             25  O  3  X      0.84731     0.88147
             26  O  3  Y      0.66304     0.71531
             27  O  3  Z      0.97559     0.97503
             28  C  4  S      1.98662     1.97421
             29  C  4  S      0.36976     0.42592
             30  C  4  X      0.57973     0.53791
             31  C  4  Y      0.55193     0.52538
             32  C  4  Z      0.57583     0.53554
             33  C  4  S      1.12401     0.58163
             34  C  4  X      0.52340     0.58672
             35  C  4  Y      0.34056     0.53557
             36  C  4  Z      0.55215     0.59721
             37  H  5  S      0.46608     0.46151
             38  H  5  S      0.28999     0.37912
             39  H  6  S      0.42598     0.43223
             40  H  6  S      0.20478     0.31132
             41  H  7  S      0.46513     0.46163
             42  H  7  S      0.30642     0.42153
             43  H  8  S      0.46545     0.46163
             44  H  8  S      0.30758     0.42226
             45  H  9  S      0.47052     0.46748
             46  H  9  S      0.33134     0.43269

          ----- MULLIKEN ATOMIC OVERLAP POPULATIONS -----
          (OFF-DIAGONAL ELEMENTS NEED TO BE MULTIPLIED BY 2)

             1           2           3           4           5

    1    6.9983364
    2    0.4628748   4.7601626
    3   -0.0685349   0.2637049   8.1920219
    4   -0.0916091   0.1913903  -0.0784017   5.5387025
    5    0.3004480  -0.0532011   0.0035388  -0.0092509   0.5103191
    6    0.0059633  -0.0327222   0.2488720   0.0085656  -0.0002794
    7    0.0012013  -0.0364972   0.0018770   0.3489779   0.0002476
    8    0.0019602  -0.0319255   0.0026103   0.3406241   0.0002307
    9   -0.0014472  -0.0375509   0.0016285   0.3549876   0.0040224

             6           7           8           9

    6    0.4010460
    7   -0.0002322   0.4996285
    8   -0.0002783  -0.0210714   0.5041650
    9   -0.0001769  -0.0225849  -0.0232856   0.5262664

          TOTAL MULLIKEN AND LOWDIN ATOMIC POPULATIONS
       ATOM         MULL.POP.    CHARGE          LOW.POP.     CHARGE
    1 N             7.609193   -0.609193         7.336206   -0.336206
    2 C             5.486236    0.513764         5.857742    0.142258
    3 O             8.567317   -0.567317         8.254563   -0.254563
    4 C             6.603986   -0.603986         6.300090   -0.300090
    5 H             0.756075    0.243925         0.840633    0.159367
    6 H             0.630758    0.369242         0.743549    0.256451
    7 H             0.771547    0.228453         0.883163    0.116837
    8 H             0.773029    0.226971         0.883888    0.116112
    9 H             0.801859    0.198141         0.900167    0.099833

          -------------------------------
          BOND ORDER AND VALENCE ANALYSIS     BOND ORDER THRESHOLD=0.050
          -------------------------------

                   BOND                       BOND                       BOND
  ATOM PAIR DIST  ORDER      ATOM PAIR DIST  ORDER      ATOM PAIR DIST  ORDER
    1   2  1.288  1.768        1   3  2.270  0.122        1   5  1.027  0.865
    2   3  1.344  1.003        2   4  1.506  0.909        3   6  0.973  0.796
    4   7  1.094  0.901        4   8  1.094  0.900        4   9  1.094  0.914

                       TOTAL       BONDED        FREE
      ATOM            VALENCE     VALENCE     VALENCE
    1 N                 2.838       2.838      -0.000
    2 C                 3.684       3.684      -0.000
    3 O                 1.952       1.952      -0.000
    4 C                 3.641       3.641       0.000
    5 H                 0.909       0.909       0.000
    6 H                 0.855       0.855       0.000
    7 H                 0.906       0.906      -0.000
    8 H                 0.908       0.908       0.000
    9 H                 0.920       0.920      -0.000

          ---------------------
          ELECTROSTATIC MOMENTS
          ---------------------

 POINT   1           X           Y           Z (BOHR)    CHARGE
                -0.000003    0.000003   -0.000004       -0.00 (A.U.)
         DX          DY          DZ         /D/  (DEBYE)
    -0.073133   -1.369572    0.006074    1.371536
 ...... END OF PROPERTY EVALUATION ......
 STEP CPU TIME =     0.01 TOTAL CPU TIME =          6.3 (      0.1 MIN)
 TOTAL WALL CLOCK TIME=          6.4 SECONDS, CPU UTILIZATION IS    97.66%

 BEGINNING ONE ELECTRON GRADIENT...
 ..... END OF 1-ELECTRON GRADIENT ......
 STEP CPU TIME =     0.00 TOTAL CPU TIME =          6.3 (      0.1 MIN)
 TOTAL WALL CLOCK TIME=          6.4 SECONDS, CPU UTILIZATION IS    97.51%

          ----------------------
          GRADIENT OF THE ENERGY
          ----------------------
 MEMORY FOR GRID POINT CONTRIBUTIONS TO THE DFT GRADIENT=    587967 WORDS.
 STEP CPU TIME =     1.56 TOTAL CPU TIME =          7.8 (      0.1 MIN)
 TOTAL WALL CLOCK TIME=          8.0 SECONDS, CPU UTILIZATION IS    97.87%
 THE COARSE/FINE SCHWARZ SCREENINGS SKIPPED         5618/        2687 BLOCKS.
 THE NUMBER OF GRADIENT INTEGRAL BLOCKS COMPUTED WAS     23712
 ...... END OF 2-ELECTRON GRADIENT ......
 STEP CPU TIME =     0.03 TOTAL CPU TIME =          7.8 (      0.1 MIN)
 TOTAL WALL CLOCK TIME=          8.0 SECONDS, CPU UTILIZATION IS    97.88%

          NSERCH=  0     ENERGY=    -207.9075879

                                 -----------------------
                                 GRADIENT (HARTREE/BOHR)
                                 -----------------------
        ATOM     ZNUC       DE/DX         DE/DY         DE/DZ
 --------------------------------------------------------------
    1  N            7.0    -0.0121731     0.0071889     0.0011022
    2  C            6.0     0.0383354    -0.0017157    -0.0032021
    3  O            8.0    -0.0304501     0.0144564     0.0031507
    4  C            6.0    -0.0023484    -0.0000284     0.0015666
    5  H            1.0     0.0077245    -0.0025194    -0.0004998
    6  H            1.0     0.0056051    -0.0203561    -0.0010970
    7  H            1.0    -0.0027704     0.0023271     0.0008581
    8  H            1.0    -0.0026535     0.0017101    -0.0014306
    9  H            1.0    -0.0012694    -0.0010630    -0.0004482

          MAXIMUM GRADIENT = 0.0383354    RMS GRADIENT = 0.0111886

 NSERCH:   0  E=     -207.9075879229  GRAD. MAX=  0.0383354  R.M.S.=  0.0111886

          FORCE CONSTANT MATRIX NOT UPDATED --- TAKING FIRST STEP
          MIN SEARCH, CORRECT HESSIAN, TRYING PURE NR STEP
               NR STEP HAS LENGTH         =   0.883648
          TRIM/QA LAMBDA FOR NON-TS MODES =  -0.00154278
          TRIM/QA STEP HAS LENGTH         =   0.300000
          RADIUS OF STEP TAKEN=   0.30000  CURRENT TRUST RADIUS=   0.30000

 BEGINNING GEOMETRY SEARCH POINT NSERCH=   1 ...

 COORDINATES OF ALL ATOMS ARE (ANGS)
   ATOM   CHARGE       X              Y              Z
 ------------------------------------------------------------
 N           7.0  -1.1761387964   0.7161905125   0.1710293796
 C           6.0  -0.1127621499   0.0403364083   0.0104862207
 O           8.0   1.1190006629   0.6485601855  -0.1112329582
 C           6.0   0.0589626333  -1.4574485400  -0.0348963644
 H           1.0  -2.0283801900   0.1254271332   0.1088017460
 H           1.0   0.9056974534   1.6302176164  -0.0176041164
 H           1.0   0.6301503859  -1.8179838863   0.8306727717
 H           1.0   0.6370430373  -1.7738542194  -0.9090389083
 H           1.0  -0.9297730366  -1.9225052102  -0.0391377707

          INTERNUCLEAR DISTANCES (ANGS.)
          ------------------------------

                1 N          2 C          3 O          4 C          5 H     

   1 N       0.0000000    1.2701664 *  2.3134198 *  2.5085031 *  1.0388402 *
   2 C       1.2701664 *  0.0000000    1.3791270 *  1.5082801 *  1.9200257 *
   3 O       2.3134198 *  1.3791270 *  0.0000000    2.3589787 *  3.1981385  
   4 C       2.5085031 *  1.5082801 *  2.3589787 *  0.0000000    2.6235748 *
   5 H       1.0388402 *  1.9200257 *  3.1981385    2.6235748 *  0.0000000  
   6 H       2.2814623 *  1.8883250 *  1.0089182 *  3.2017091    3.2998764  
   7 H       3.1811712    2.1628637 *  2.6851444 *  1.0979304 *  3.3713097  
   8 H       3.2641230    2.1677227 *  2.5955479 *  1.0947213 *  3.4274991  
   9 H       2.6584923 *  2.1266679 *  3.2883200    1.0926545 *  2.3287015 *

                6 H          7 H          8 H          9 H     

   1 N       2.2814623 *  3.1811712    3.2641230    2.6584923 *
   2 C       1.8883250 *  2.1628637 *  2.1677227 *  2.1266679 *
   3 O       1.0089182 *  2.6851444 *  2.5955479 *  3.2883200  
   4 C       3.2017091    1.0979304 *  1.0947213 *  1.0926545 *
   5 H       3.2998764    3.3713097    3.4274991    2.3287015 *
   6 H       0.0000000    3.5616841    3.5290985    3.9989067  
   7 H       3.5616841    0.0000000    1.7402849 *  1.7890937 *
   8 H       3.5290985    1.7402849 *  0.0000000    1.7982596 *
   9 H       3.9989067    1.7890937 *  1.7982596 *  0.0000000  

  * ... LESS THAN  3.000

 ...... END OF ONE-ELECTRON INTEGRALS ......
 STEP CPU TIME =     0.01 TOTAL CPU TIME =          7.9 (      0.1 MIN)
 TOTAL WALL CLOCK TIME=          8.0 SECONDS, CPU UTILIZATION IS    97.88%
  ...... END OF TWO-ELECTRON INTEGRALS .....
 STEP CPU TIME =     0.00 TOTAL CPU TIME =          7.9 (      0.1 MIN)
 TOTAL WALL CLOCK TIME=          8.0 SECONDS, CPU UTILIZATION IS    97.76%

          --------------------------
             R-B3LYP SCF CALCULATION
          --------------------------
         DENSITY MATRIX CONVERGENCE THRESHOLD=  1.00E-04
     COARSE -> FINE DFT GRID SWITCH THRESHOLD=  1.50E-03 (SWITCH IN $DFT)
                   HF -> DFT SWITCH THRESHOLD=  5.00E-03 (SWOFF IN $DFT)

 DIRECT SCF CALCULATION, SCHWRZ=T   FDIFF=T,  DIRTHR=  0.00E+00 NITDIR=10

 DFT CODE IS SWITCHING FROM THE FINE GRID NRAD= 96,  NLEB=  590
                      TO THE COARSE GRID NRAD0= 24, NLEB0=  110

                                                                                   NONZERO     BLOCKS
 ITER EX DEM     TOTAL ENERGY        E CHANGE  DENSITY CHANGE    DIIS ERROR      INTEGRALS    SKIPPED
          * * *   INITIATING DIIS PROCEDURE   * * *
   1  0  0     -207.9003263793  -207.9003263793   0.029303145   0.027470399         536868       4779
   2  1  0     -207.9049125247    -0.0045861454   0.024717062   0.034740708         532152       6284
   3  2  0     -207.9049063337     0.0000061910   0.015448599   0.034369244         529620       6732
   4  3  0     -207.9064295678    -0.0015232341   0.002966891   0.006437228         527725       6979
   5  4  0     -207.9064945356    -0.0000649678   0.000389137   0.000608620         518657       7959
 DFT CODE IS SWITCHING BACK TO THE FINE GRID
          * * *   INITIATING DIIS PROCEDURE   * * *
   6  5  0     -207.9081484570    -0.0016539214   0.001892843   0.001748802         536871       4776
   7  6  0     -207.9081578391    -0.0000093821   0.000734968   0.000748009         516014       8140
   8  7  0     -207.9081580846    -0.0000002456   0.000443510   0.000902843         512584       8477
   9  8  0     -207.9081592436    -0.0000011589   0.000148742   0.000193023         508113       8872
  10  9  0     -207.9081593092    -0.0000000656   0.000046842   0.000077638         499015       9743
  11 10  0     -207.9081593201    -0.0000000109   0.000016074   0.000017379         489544      10483

          -----------------
          DENSITY CONVERGED
          -----------------
     TIME TO FORM FOCK OPERATORS=       5.0 SECONDS (       0.5 SEC/ITER)
     FOCK TIME ON FIRST ITERATION=       0.1, LAST ITERATION=       0.8
     TIME TO SOLVE SCF EQUATIONS=       0.0 SECONDS (       0.0 SEC/ITER)

 FINAL R-B3LYP ENERGY IS     -207.9081593201 AFTER  11 ITERATIONS
 DFT EXCHANGE + CORRELATION ENERGY =       -22.6274630393
 TOTAL ELECTRON NUMBER             =        31.9999995906
 ...... END OF RHF CALCULATION ......
 STEP CPU TIME =     5.15 TOTAL CPU TIME =         13.0 (      0.2 MIN)
 TOTAL WALL CLOCK TIME=         13.2 SECONDS, CPU UTILIZATION IS    98.19%
 ..... END OF 1-ELECTRON GRADIENT ......
 STEP CPU TIME =     0.00 TOTAL CPU TIME =         13.0 (      0.2 MIN)
 TOTAL WALL CLOCK TIME=         13.3 SECONDS, CPU UTILIZATION IS    98.04%
 MEMORY FOR GRID POINT CONTRIBUTIONS TO THE DFT GRADIENT=    587967 WORDS.
 STEP CPU TIME =     1.56 TOTAL CPU TIME =         14.6 (      0.2 MIN)
 TOTAL WALL CLOCK TIME=         14.8 SECONDS, CPU UTILIZATION IS    98.25%
 ...... END OF 2-ELECTRON GRADIENT ......
 STEP CPU TIME =     0.03 TOTAL CPU TIME =         14.6 (      0.2 MIN)
 TOTAL WALL CLOCK TIME=         14.9 SECONDS, CPU UTILIZATION IS    98.25%

          NSERCH=  1     ENERGY=    -207.9081593

                                 -----------------------
                                 GRADIENT (HARTREE/BOHR)
                                 -----------------------
        ATOM     ZNUC       DE/DX         DE/DY         DE/DZ
 --------------------------------------------------------------
    1  N            7.0     0.0035955    -0.0010429     0.0087959
    2  C            6.0    -0.0049609     0.0169590    -0.0003165
    3  O            8.0     0.0071811    -0.0179186    -0.0064316
    4  C            6.0     0.0015693     0.0060853     0.0015112
    5  H            1.0    -0.0027925    -0.0054995    -0.0073207
    6  H            1.0    -0.0077876     0.0038832     0.0023216
    7  H            1.0     0.0025810    -0.0038918    -0.0020405
    8  H            1.0     0.0026203    -0.0027447     0.0027895
    9  H            1.0    -0.0020063     0.0041699     0.0006910

          MAXIMUM GRADIENT = 0.0179186    RMS GRADIENT = 0.0063895

 NSERCH:   1  E=     -207.9081593201  GRAD. MAX=  0.0179186  R.M.S.=  0.0063895

          HESSIAN UPDATED USING THE BFGS FORMULA
             ACTUAL ENERGY CHANGE WAS  -0.0005713971
          PREDICTED ENERGY CHANGE WAS  -0.0032418887 RATIO=  0.176
          MIN SEARCH, CORRECT HESSIAN, TRYING PURE NR STEP
               NR STEP HAS LENGTH         =  10.783567
          TRIM/QA LAMBDA FOR NON-TS MODES =  -0.02880385
          TRIM/QA STEP HAS LENGTH         =   0.300000
          RADIUS OF STEP TAKEN=   0.30000  CURRENT TRUST RADIUS=   0.30000

 BEGINNING GEOMETRY SEARCH POINT NSERCH=   2 ...

 COORDINATES OF ALL ATOMS ARE (ANGS)
   ATOM   CHARGE       X              Y              Z
 ------------------------------------------------------------
 N           7.0  -1.1783707742   0.7159252269   0.0648786944
 C           6.0  -0.1208251551   0.0232638458   0.0169850807
 O           8.0   1.1212234203   0.6514493128  -0.0526256644
 C           6.0   0.0617398234  -1.4722829762  -0.0445122928
 H           1.0  -2.0351995332   0.1526155946   0.1968488580
 H           1.0   0.9094365008   1.6419854967  -0.0342331564
 H           1.0   0.6278505481  -1.8158717452   0.8315412850
 H           1.0   0.6408432503  -1.7658509795  -0.9239626542
 H           1.0  -0.9228980805  -1.9422937758  -0.0458401503

          INTERNUCLEAR DISTANCES (ANGS.)
          ------------------------------

                1 N          2 C          3 O          4 C          5 H     

   1 N       0.0000000    1.2650993 *  2.3034969 *  2.5175575 *  1.0338711 *
   2 C       1.2650993 *  0.0000000    1.3936095 *  1.5079032 *  1.9271513 *
   3 O       2.3034969 *  1.3936095 *  0.0000000    2.3733542 *  3.2053203  
   4 C       2.5175575 *  1.5079032 *  2.3733542 *  0.0000000    2.6637765 *
   5 H       1.0338711 *  1.9271513 *  3.2053203    2.6637765 *  0.0000000  
[...]
                   Z -1.87215858  0.07056667  0.00056461 18.55758373  1.72559131
               TOTAL  1.88223173  0.46229603  0.00455228 18.70056585 13.54665449

                            6           7           8           9          10
       FREQUENCY:         7.74      104.16      402.20      520.25      536.05  
        SYMMETRY:         A           A           A           A           A   
    REDUCED MASS:      3.27565     1.07398     2.69304     1.86981     3.07185
    IR INTENSITY:      0.03619     0.04221     0.07085     0.55600     0.94003

  1   N            X  0.00412952 -0.00324303  0.03765262 -0.00044133 -0.10352251
                   Y  0.00833647  0.00015676 -0.09145359  0.00435641 -0.09639289
                   Z -0.01003834 -0.04626770 -0.00423614 -0.06005481  0.00211775
  2   C            X -0.00060313  0.00080628  0.09290815  0.01080958  0.00603008
                   Y  0.00089526 -0.00033532 -0.00690828 -0.00670001  0.07589576
                   Z -0.00619585  0.01373530 -0.00555740  0.19176969  0.00704753
  3   O            X  0.01352388  0.00220760  0.02691486 -0.00342611  0.08816808
                   Y -0.01178648 -0.00035029  0.12513623  0.00240647 -0.06400415
                   Z  0.16287175  0.04543142  0.00150844 -0.01704000 -0.00705419
  4   C            X -0.01980744  0.00055585 -0.11510917 -0.00039460 -0.02483623
                   Y  0.00313117  0.00040232 -0.03175784 -0.00345390  0.12140099
                   Z -0.16035511 -0.00706251  0.00576349 -0.01683030  0.00370066
  5   H            X -0.00716112 -0.00421993  0.09247880 -0.00285713  0.03246076
                   Y  0.01755650 -0.00027166 -0.18010638  0.01043398 -0.32503480
                   Z -0.14051879 -0.07488691 -0.00994858 -0.03230912 -0.01089230
  6   H            X  0.02595622 -0.00111962 -0.12785990 -0.03953364  0.34145203
                   Y -0.01277211  0.00064882  0.09813870  0.01301499 -0.02051359
                   Z  0.25906889 -0.00185444  0.00940765 -0.51796777 -0.03664111
  7   H            X -0.09390651  0.46262108 -0.20380484 -0.00506635 -0.03548807
                   Y -0.10196149  0.05929287 -0.18572851 -0.28172911  0.09203082
                   Z -0.14581370 -0.32509850  0.01292086 -0.12159804 -0.00003703
  8   H            X  0.05100207 -0.48865677 -0.20317346 -0.00625443 -0.03428131
                   Y  0.09860982 -0.04418820 -0.19074670  0.27776927  0.10774231
                   Z -0.14758031 -0.28334380  0.00165098 -0.10806552  0.00257273
  9   H            X -0.03021409  0.02546976 -0.24362933 -0.00980384 -0.04110133
                   Y  0.01399231 -0.01273095  0.20352368  0.00268251  0.15167969
                   Z -0.29722496  0.52532613  0.01843247 -0.19825559 -0.00045696

 TRANS. SAYVETZ    X -0.02553620  0.00029183 -0.00001566 -0.00001305  0.00003409
                   Y -0.00792455  0.00016865  0.00000440 -0.00000745 -0.00002547
                   Z -0.00982289 -0.00225328 -0.00000103 -0.00008278 -0.00000832
               TOTAL  0.02848482  0.00227835  0.00001630  0.00008414  0.00004336

   ROT. SAYVETZ    X 11.54938686  0.09935132  0.00778688 -0.00144275  0.00058598
                   Y -6.96120841  0.02546808 -0.00787172  0.00088482  0.00231461
                   Z -2.14002179  0.12581795 -0.00038851 -0.00591641 -0.00524420
               TOTAL 13.65380726  0.16232518  0.01107928  0.00615373  0.00576216

                           11          12          13          14          15
       FREQUENCY:       651.20      840.35      849.36     1003.48     1082.59  
        SYMMETRY:         A           A           A           A           A   
    REDUCED MASS:      1.39988     4.55496     1.14333     2.03249     1.30575
    IR INTENSITY:      3.74054     0.02703     0.76870     2.89218     2.98734

  1   N            X -0.00406801  0.10763725 -0.00480576  0.00580288 -0.03099779
                   Y  0.00144427 -0.05381487  0.00184258 -0.04521095 -0.04936305
                   Z -0.06829387 -0.00809737 -0.06716687 -0.00124571  0.00037998
  2   C            X  0.00592865  0.04267279 -0.00315044 -0.05914574 -0.04889447
                   Y -0.00236217 -0.07081057  0.00170411 -0.08059148 -0.04726721
                   Z  0.10312413 -0.00413508 -0.04904822  0.00134527  0.00251007
  3   O            X -0.00436303 -0.09992637  0.00362551  0.11667257  0.04901583
                   Y  0.00194187 -0.05464455 -0.00057310  0.05094835  0.00730472
                   Z -0.08033629  0.00477927  0.04641250 -0.00547753 -0.00269531
  4   C            X  0.00097944 -0.01779880  0.00036071 -0.10119855  0.08349700
                   Y -0.00040136  0.16951972 -0.00148760  0.03142423  0.04193596
                   Z  0.02086139  0.00491730  0.00637619  0.00649979 -0.00449684
  5   H            X  0.00687329  0.07337272  0.05181685 -0.14266501 -0.37022023
                   Y -0.00327124  0.01481329 -0.02130661  0.21719652  0.56365529
                   Z  0.11835534  0.00376141  0.91693316  0.01232785  0.03497936
  6   H            X  0.04604030 -0.23943412 -0.00378861 -0.21784268 -0.02521870
                   Y -0.01860094 -0.08127329  0.00305373 -0.00056373 -0.00200368
                   Z  0.79012682  0.01078094 -0.09851604  0.01248752  0.00122751
  7   H            X  0.02514393 -0.01057551  0.01800575  0.10556689 -0.11710270
                   Y -0.14258806  0.16138515 -0.05658242  0.27720799 -0.17067006
                   Z -0.05407016 -0.00260327 -0.03080776 -0.04633857  0.05478835
  8   H            X -0.03078580 -0.00993168 -0.02068605  0.10786989 -0.11847452
                   Y  0.14326196  0.16220084  0.05508694  0.28227716 -0.17999093
                   Z -0.04454429  0.01096896 -0.02627527  0.04832270 -0.04912391
  9   H            X -0.00375625 -0.01926223 -0.00289344  0.12396236 -0.12824325
                   Y  0.00321574  0.18253530  0.00066494 -0.37111177  0.42244211
                   Z -0.06227894  0.00443528 -0.05659736 -0.01596744  0.01928289

 TRANS. SAYVETZ    X  0.00000223 -0.00001497  0.00000436  0.00000462 -0.00003050
                   Y -0.00000142  0.00000357  0.00000041 -0.00000943  0.00001828
                   Z -0.00003077 -0.00000016  0.00000837  0.00000121  0.00000115
               TOTAL  0.00003088  0.00001539  0.00000944  0.00001057  0.00003557

   ROT. SAYVETZ    X  0.00040907 -0.00011353  0.00036932 -0.00129522  0.00052450
                   Y  0.00225179 -0.00089946 -0.00046683  0.00041478 -0.00248819
                   Z -0.00303867  0.00291209  0.00316510  0.00210875  0.00270744
               TOTAL  0.00380413  0.00304995  0.00322059  0.00250928  0.00371435

                           16          17          18          19          20
       FREQUENCY:      1111.64     1239.49     1426.46     1455.53     1538.59  
        SYMMETRY:         A           A           A           A           A   
    REDUCED MASS:      1.58731     1.54140     1.82657     1.33264     1.04356
    IR INTENSITY:      0.32575     2.39212     0.46419     0.96754     0.21106

  1   N            X -0.00190837  0.06094909 -0.03495237 -0.00746794  0.00059871
                   Y  0.00111748 -0.09065792 -0.03822591 -0.01918521 -0.00059629
                   Z -0.03438248 -0.00560458  0.00113102 -0.00001885  0.00181676
  2   C            X  0.00734605  0.02802760  0.09819027  0.03542243 -0.00150937
                   Y -0.00253490  0.06891086  0.15011645  0.06549134  0.00170179
                   Z  0.12325015 -0.00002724 -0.00211312 -0.00046288 -0.02401124
  3   O            X -0.00072808 -0.07754370  0.00009177  0.00073970  0.00016411
                   Y  0.00015774  0.01979992 -0.05841355 -0.02187462 -0.00024296
                   Z -0.00927056  0.00492135 -0.00143283 -0.00057793  0.00232129
  4   C            X -0.00774768 -0.04703647 -0.02536314  0.00939488 -0.00168952
                   Y  0.00265581 -0.02880557  0.01107065 -0.12399782  0.00140543
                   Z -0.12795666  0.00197860  0.00183299 -0.00336238 -0.05016450
  5   H            X  0.01034044 -0.17815915 -0.15721288 -0.04562525  0.00047303
                   Y -0.00643132  0.38068172  0.23013518  0.06987896  0.00040711
                   Z  0.14692313  0.01892837  0.01420379  0.00401331  0.00515695
  6   H            X -0.00104643  0.61069861 -0.49923314 -0.20673487 -0.00157176
                   Y  0.00030273  0.11769000 -0.11856685 -0.04649560 -0.00072483
                   Z -0.01529517 -0.03225023  0.02598440  0.01086891  0.01055672
  7   H            X -0.13615938  0.06796380  0.08319165  0.03210642 -0.31526409
                   Y  0.45890601  0.07361165 -0.17597129  0.45805831 -0.36687665
                   Z  0.15697659 -0.04002606 -0.13351306  0.18249581  0.06374676
  8   H            X  0.15468658  0.07038569  0.09278008  0.01574241  0.30824403
                   Y -0.45762677  0.07442192 -0.18190690  0.46714322  0.36387079
                   Z  0.12353509  0.03653243  0.11575078 -0.16230950  0.04464114
  9   H            X  0.01503450  0.03926967  0.09751571 -0.23710276  0.03528428
                   Y -0.01461836 -0.17852698 -0.21474396  0.36178089 -0.02153398
                   Z  0.26876439 -0.00665324 -0.01206369  0.01991338  0.69701728

 TRANS. SAYVETZ    X  0.00000291 -0.00000350 -0.00000244 -0.00000453  0.00000012
                   Y  0.00000217  0.00001164 -0.00001601  0.00000731 -0.00000149
                   Z  0.00001187 -0.00000087  0.00000153  0.00000112  0.00000423
               TOTAL  0.00001241  0.00001219  0.00001626  0.00000867  0.00000448

   ROT. SAYVETZ    X -0.00107042 -0.00065284 -0.00046443 -0.00067148 -0.00001571
                   Y  0.00062903  0.00034582  0.00074724  0.00020935  0.00015177
                   Z  0.00024961 -0.00002461 -0.00111398  0.00067675 -0.00038757
               TOTAL  0.00126640  0.00073919  0.00141952  0.00097606  0.00041652

                           21          22          23          24          25
       FREQUENCY:      1541.30     1735.40     3065.95     3121.33     3153.74  
        SYMMETRY:         A           A           A           A           A   
    REDUCED MASS:      1.08348     5.47025     1.03387     1.09831     1.10119
    IR INTENSITY:      0.80481     3.28240     0.09879     0.14879     0.27557

  1   N            X -0.02558741 -0.11986325 -0.00034549  0.00000273  0.00210895
                   Y  0.02445508  0.06445069  0.00025062  0.00001249 -0.00001233
                   Z  0.00214099  0.00841318  0.00002965 -0.00034609 -0.00011078
  2   C            X  0.01369068  0.19468301  0.00095316 -0.00007160 -0.00344384
                   Y -0.04487568 -0.11376411  0.00028078  0.00006119  0.00149055
                   Z -0.00236047 -0.01386225 -0.00003070 -0.00093674  0.00024077
  3   O            X -0.00149276 -0.02248291  0.00006032  0.00001105  0.00055508
                   Y  0.00611384  0.00353480 -0.00015414  0.00000478  0.00028021
                   Z  0.00024856  0.00138369 -0.00000972  0.00011302 -0.00003064
  4   C            X -0.04943727 -0.01478280  0.01905108 -0.00510694 -0.08532012
                   Y -0.01261599  0.01638350 -0.04389616  0.00113386 -0.01974415
                   Z  0.00138232  0.00122625 -0.00065850 -0.08640700  0.00490899
  5   H            X -0.01440839 -0.17791235 -0.00189268 -0.00014109 -0.01017004
                   Y -0.01804403  0.10988977 -0.00107471 -0.00014912 -0.00918948
                   Z -0.00000815  0.01275411  0.00006166  0.00028418  0.00032623
  6   H            X  0.06488547  0.13901337 -0.00173872  0.00002736  0.00035283
                   Y  0.01190984  0.01865536  0.00412548 -0.00004601 -0.00084035
                   Z -0.00337555 -0.00749896  0.00021352  0.00095275 -0.00007552
  7   H            X  0.46880620 -0.06699301 -0.34770204  0.38678721  0.14827351
                   Y -0.05153661  0.08747462  0.16968232 -0.19524029 -0.09047400
                   Z -0.37134798  0.07130368 -0.49076174  0.50764327  0.23933544
  8   H            X  0.50904454 -0.07260410 -0.29031614 -0.34246193  0.13647087
                   Y -0.05895787  0.09309346  0.13956421  0.17083014 -0.08387460
                   Z  0.32485639 -0.06067976  0.51197386  0.55694657 -0.27422879
  9   H            X -0.22348413  0.05869840  0.40730439  0.01723512  0.74385720
                   Y  0.36435721 -0.10120837  0.20598941  0.01012636  0.39744435
                   Z  0.02783008 -0.00427960 -0.01353901 -0.02282635 -0.02464894

 TRANS. SAYVETZ    X  0.00000368  0.00000176 -0.00000117  0.00000005 -0.00000094
                   Y  0.00000348  0.00001085  0.00000162 -0.00000025 -0.00000075
                   Z  0.00000061  0.00000056 -0.00000035 -0.00000161  0.00000019
               TOTAL  0.00000511  0.00001100  0.00000203  0.00000163  0.00000122

   ROT. SAYVETZ    X  0.00008098 -0.00017725  0.00000050 -0.00006924 -0.00006543
                   Y -0.00017011 -0.00040865  0.00001782  0.00000428 -0.00002367
                   Z  0.00106710  0.00076013 -0.00000411  0.00005436 -0.00007437
               TOTAL  0.00108361  0.00088103  0.00001830  0.00008814  0.00010184

                           26          27
       FREQUENCY:      3378.51     3464.51  
        SYMMETRY:         A           A   
    REDUCED MASS:      1.07625     1.06275
    IR INTENSITY:      0.04787     0.21611

  1   N            X -0.06368115 -0.00260406
                   Y -0.02709846 -0.00112654
                   Z  0.00302885  0.00012299
  2   C            X  0.00167616  0.00091768
                   Y -0.00918570 -0.00470070
                   Z -0.00031428 -0.00016060
  3   O            X  0.00045693  0.00729832
                   Y  0.00403171 -0.05802523
                   Z  0.00007078 -0.00179362
  4   C            X -0.00086811 -0.00063496
                   Y  0.00011397  0.00097442
                   Z  0.00003961  0.00004623
  5   H            X  0.84070765  0.04501816
                   Y  0.46186772  0.02287286
                   Z -0.03752066 -0.00206533
  6   H            X  0.01193085 -0.13245606
                   Y -0.04855398  0.95732316
                   Z -0.00183396  0.03026160
  7   H            X  0.00199991  0.00241391
                   Y -0.00070861  0.00032418
                   Z  0.00250613  0.00206169
  8   H            X  0.00181127  0.00219107
                   Y -0.00064183  0.00051692
                   Z -0.00275967 -0.00218160
  9   H            X  0.01148622 -0.00018216
                   Y  0.00858063 -0.00011365
                   Z -0.00032912  0.00004251

 TRANS. SAYVETZ    X  0.00000109 -0.00000098
                   Y -0.00000067  0.00000056
                   Z -0.00000042 -0.00000015
               TOTAL  0.00000134  0.00000114

   ROT. SAYVETZ    X  0.00002433 -0.00002430
                   Y  0.00003473  0.00002012
                   Z -0.00004755 -0.00003973
               TOTAL  0.00006371  0.00005073

 REFERENCE ON SAYVETZ CONDITIONS - A. SAYVETZ, J.CHEM.PHYS., 7, 383-389(1939).

 NOTE - THE MODES J,K ARE ORTHONORMALIZED ACCORDING TO
 SUM ON I   M(I) * (X(I,J)*X(I,K) + Y(I,J)*Y(I,K) + Z(I,J)*Z(I,K)) = DELTA(J,K)

  MODE FREQ(CM**-1)  SYMMETRY  RED. MASS  IR INTENS.
     1       0.298    A        6.909077    0.000205
     2       0.206    A        6.626539    0.000003
     3       0.007    A        6.559693    0.000000
     4       2.955    A        3.813487    0.020215
     5       5.976    A        4.098896    0.001946
     6       7.742    A        3.275649    0.036194
     7     104.164    A        1.073982    0.042213
     8     402.199    A        2.693045    0.070852
     9     520.247    A        1.869806    0.555996
    10     536.052    A        3.071855    0.940026
    11     651.202    A        1.399875    3.740539
    12     840.350    A        4.554963    0.027031
    13     849.359    A        1.143326    0.768698
    14    1003.482    A        2.032489    2.892181
    15    1082.587    A        1.305751    2.987339
    16    1111.644    A        1.587314    0.325750
    17    1239.495    A        1.541398    2.392123
    18    1426.464    A        1.826571    0.464195
    19    1455.531    A        1.332640    0.967545
    20    1538.590    A        1.043560    0.211056
    21    1541.296    A        1.083482    0.804811
    22    1735.401    A        5.470245    3.282404
    23    3065.947    A        1.033867    0.098793
    24    3121.335    A        1.098305    0.148794
    25    3153.735    A        1.101192    0.275570
    26    3378.510    A        1.076249    0.047872
    27    3464.514    A        1.062747    0.216115

     -------------------------------
     THERMOCHEMISTRY AT T=  298.15 K
     -------------------------------

 USING IDEAL GAS, RIGID ROTOR, HARMONIC NORMAL MODE APPROXIMATIONS.
 P=  1.01325E+05 PASCAL.
 ALL FREQUENCIES ARE SCALED BY   1.00000
 THE MOMENTS OF INERTIA ARE (IN AMU*BOHR**2)
            170.16111           197.17200           356.09950
 THE ROTATIONAL SYMMETRY NUMBER IS  1.0
 THE ROTATIONAL CONSTANTS ARE (IN GHZ)
     10.59636     9.14475     5.06344
      7 -     27 VIBRATIONAL MODES ARE USED IN THERMOCHEMISTRY.
 THE HARMONIC ZERO POINT ENERGY IS (SCALED BY   1.000)
        0.073407 HARTREE/MOLECULE    16111.051522 CM**-1/MOLECULE 
       46.063854 KCAL/MOL              192.731165 KJ/MOL

               Q               LN Q
 ELEC.     1.00000E+00       0.000000
 TRANS.    1.78296E+07      16.696370
 ROT.      3.91273E+04      10.574576
 VIB.      3.85285E+00       1.348814
 TOT.      2.68784E+12      28.619760

              E         H         G         CV        CP        S
           KJ/MOL    KJ/MOL    KJ/MOL   J/MOL-K   J/MOL-K   J/MOL-K
 ELEC.      0.000     0.000     0.000     0.000     0.000     0.000
 TRANS.     3.718     6.197   -41.389    12.472    20.786   159.606
 ROT.       3.718     3.718   -26.214    12.472    12.472   100.393
 VIB.     197.543   197.543   189.388    39.068    39.068    27.354
 TOTAL    204.980   207.459   121.784    64.011    72.326   287.354
 VIB. THERMAL CORRECTION E(T)-E(0) = H(T)-H(0) =      4812.061 J/MOL

              E         H         G         CV        CP        S
         KCAL/MOL  KCAL/MOL  KCAL/MOL CAL/MOL-K CAL/MOL-K CAL/MOL-K
 ELEC.      0.000     0.000     0.000     0.000     0.000     0.000
 TRANS.     0.889     1.481    -9.892     2.981     4.968    38.147
 ROT.       0.889     0.889    -6.265     2.981     2.981    23.994
 VIB.      47.214    47.214    45.265     9.338     9.338     6.538
 TOTAL     48.991    49.584    29.107    15.299    17.286    68.679
 VIB. THERMAL CORRECTION E(T)-E(0) = H(T)-H(0) =      1150.110 CAL/MOL
 ......END OF NORMAL COORDINATE ANALYSIS......
 STEP CPU TIME =     0.01 TOTAL CPU TIME =        529.4 (      8.8 MIN)
 TOTAL WALL CLOCK TIME=        536.5 SECONDS, CPU UTILIZATION IS    98.66%
                662120  WORDS OF DYNAMIC MEMORY USED
 EXECUTION OF GAMESS TERMINATED NORMALLY Sat Oct  8 13:11:57 2022
 DDI: 263640 bytes (0.3 MB / 0 MWords) used by master data server.

 ----------------------------------------
 CPU timing information for all processes
 ========================================
 0: 525.530 + 3.830 = 529.360
 ----------------------------------------
 ddikick.x: exited gracefully.
----- accounting info -----
Files used on the master node chemcompute-node-0.novalocal were:
-rw-r--r--. 1 chemcomp chemcomp     1001 Oct  8 13:03 /scratch/121695/461822.F05
-rw-rw-r--. 1 chemcomp chemcomp 70451200 Oct  8 13:11 /scratch/121695/461822.F10
-rw-rw-r--. 1 chemcomp chemcomp  4613504 Oct  8 13:11 /scratch/121695/461822.F22
Sat Oct  8 13:12:00 UTC 2022
0.099u 0.038s 8:59.88 0.0%	0+0k 8+208io 0pf+0w
Finishing Up...
Looking for IR data...
Looking for Raman data...
vibramans not found
Looking for thermodynamics data...
Looking for UV-Vis data...
chemcompute.org
{'UTCtimestamp': '2022-10-08T13:12:03.041812', 'cluster': 'jetstream2', 'clusterJobNumber': '121695', 'status': 'COMPLETE', 'nodeList': 'chemcompute-node-0'}
121695
