chemcompute.org
{'UTCtimestamp': '2022-10-07T20:50:39.452851', 'cluster': 'jetstream2', 'clusterJobNumber': '121621', 'status': 'RUNNING', 'nodeList': 'chemcompute-node-1'}
----- GAMESS execution script 'rungms' -----
This job is running on host chemcompute-node-1.novalocal
under operating system Linux at Fri Oct 7 20:50:44 UTC 2022
SLURM has assigned the following compute nodes to this run:
Available scratch disk space (Kbyte units) at beginning of the job is
Filesystem     1K-blocks     Used Available Use% Mounted on
/dev/sda1       62903276 12235072  50668204  20% /
GAMESS temporary binary files will be written to /scratch/121621
GAMESS supplementary output files will be written to /data/slurm/46/461728
Copying input file 461728.inp to your run's scratch directory...
The generated host list is
chemcompute-node-1.novalocal

 Distributed Data Interface kickoff program.
 Initiating 1 compute processes on 1 nodes to run the following command:
 /data/gamess-2019R1-avx2-ddi/gamess.00.x 461728 

          ******************************************************
          *         GAMESS VERSION = 30 JUN 2019 (R1)          *
          *             FROM IOWA STATE UNIVERSITY             *
          * M.W.SCHMIDT, K.K.BALDRIDGE, J.A.BOATZ, S.T.ELBERT, *
          *   M.S.GORDON, J.H.JENSEN, S.KOSEKI, N.MATSUNAGA,   *
          *          K.A.NGUYEN, S.J.SU, T.L.WINDUS,           *
          *       TOGETHER WITH M.DUPUIS, J.A.MONTGOMERY       *
          *         J.COMPUT.CHEM.  14, 1347-1363(1993)        *
          **************** 64 BIT INTEL VERSION ****************

  SINCE 1993, STUDENTS AND POSTDOCS WORKING AT IOWA STATE UNIVERSITY
  AND ALSO IN THEIR VARIOUS JOBS AFTER LEAVING ISU HAVE MADE IMPORTANT
  CONTRIBUTIONS TO THE CODE:
     IVANA ADAMOVIC, CHRISTINE AIKENS, YURI ALEXEEV, POOJA ARORA,
     ANDREY ASADCHEV, ROB BELL, PRADIPTA BANDYOPADHYAY, JONATHAN BENTZ,
     COLLEEN BERTONI, BRETT BODE, KURT BRORSEN, CALEB CARLIN, GALINA CHABAN,
     WEI CHEN, CHEOL HO CHOI, PAUL DAY, ALBERT DEFUSCO, NUWAN DESILVA,
     TIM DUDLEY, DMITRI FEDOROV, ALEX FINDLATER, GRAHAM FLETCHER, 
     MARK FREITAG, KURT GLAESEMANN, ANASTASIA GUNINA,
     DAN KEMP, GRANT MERRILL, NORIYUKI MINEZAWA, JONATHAN MULLIN,
     TAKESHI NAGATA, SEAN NEDD, HEATHER NETZLOFF, BOSILJKA NJEGIC, RYAN OLSON,
     MIKE PAK, BUU PHAM,
     SPENCER PRUITT, LUKE ROSKOP, JIM SHOEMAKER, LYUDMILA SLIPCHENKO,
     TONY SMITH, SAROM SOK LEANG, JIE SONG, TETSUYA TAKETSUGU, SIMON WEBB,
     PENG XU, SOOHAENG YOO, FEDERICO ZAHARIEV

  ADDITIONAL CODE HAS BEEN PROVIDED BY COLLABORATORS IN OTHER GROUPS:
     IOWA STATE UNIVERSITY:
          JOE IVANIC, AARON WEST, LAIMUTIS BYTAUTAS, KLAUS RUEDENBERG
     UNIVERSITY OF TOKYO: KIMIHIKO HIRAO, TAKAHITO NAKAJIMA,
          TAKAO TSUNEDA, MUNEAKI KAMIYA, SUSUMU YANAGISAWA,
          KIYOSHI YAGI, MAHITO CHIBA, SEIKEN TOKURA, NAOAKI KAWAKAMI
     UNIVERSITY OF AARHUS: FRANK JENSEN
     UNIVERSITY OF IOWA: VISVALDAS KAIRYS, HUI LI
     NATIONAL INST. OF STANDARDS AND TECHNOLOGY: WALT STEVENS, DAVID GARMER
     UNIVERSITY OF PISA: BENEDETTA MENNUCCI, JACOPO TOMASI
     UNIVERSITY OF MEMPHIS: HENRY KURTZ, PRAKASHAN KORAMBATH
     UNIVERSITY OF ALBERTA: TOBY ZENG, MARIUSZ KLOBUKOWSKI
     UNIVERSITY OF NEW ENGLAND: MARK SPACKMAN
     MIE UNIVERSITY: HIROAKI UMEDA
     NAT. INST. OF ADVANCED INDUSTRIAL SCIENCE AND TECHNOLOGY: KAZUO KITAURA
     MICHIGAN STATE UNIVERSITY:
          KAROL KOWALSKI, MARTA WLOCH, JEFFREY GOUR, JESSE LUTZ,
          WEI LI, JUN SHEN, J. EMILIANO DEUSTUA, PIOTR PIECUCH
     UNIVERSITY OF MINNESOTA:
          YINAN SHU
     UNIVERSITY OF SILESIA: MONIKA MUSIAL, STANISLAW KUCHARSKI
     FACULTES UNIVERSITAIRES NOTRE-DAME DE LA PAIX:
          OLIVIER QUINET, BENOIT CHAMPAGNE
     UNIVERSITY OF CALIFORNIA - SANTA BARBARA: BERNARD KIRTMAN
     INSTITUTE FOR MOLECULAR SCIENCE:
          KAZUYA ISHIMURA, MICHIO KATOUDA, AND SHIGERU NAGASE
     UNIVERSITY OF NOTRE DAME: ANNA POMOGAEVA, DAN CHIPMAN
     KYUSHU UNIVERSITY:
          HARUYUKI NAKANO,
          FENG LONG GU, JACEK KORCHOWIEC, MARCIN MAKOWSKI, AND YURIKO AOKI,
          HIROTOSHI MORI AND EISAKU MIYOSHI
     PENNSYLVANIA STATE UNIVERSITY:
          TZVETELIN IORDANOV, CHET SWALINA, JONATHAN SKONE,
          SHARON HAMMES-SCHIFFER
     WASEDA UNIVERSITY:
          MASATO KOBAYASHI, TOMOKO AKAMA, TSUGUKI TOUMA,
          TAKESHI YOSHIKAWA, YASUHIRO IKABATA, JUNJI SEINO,
          YUYA NAKAJIMA, HIROMI NAKAI
     NANJING UNIVERSITY: SHUHUA LI
     UNIVERSITY OF NEBRASKA:
          PEIFENG SU, DEJUN SI, NANDUN THELLAMUREGE, YALI WANG, HUI LI
     UNIVERSITY OF ZURICH: ROBERTO PEVERATI, KIM BALDRIDGE
     N. COPERNICUS UNIVERSITY AND JACKSON STATE UNIVERSITY:
          MARIA BARYSZ
     UNIVERSITY OF COPENHAGEN: Jimmy Kromann, CASPER STEINMANN
     TOKYO INSTITUTE OF TECHNOLOGY: HIROYA NAKATA
     NAGOYA UNIVERSITY: YOSHIO NISHIMOTO, STEPHAN IRLE
     MOSCOW STATE UNIVERSITY: VLADIMIR MIRONOV
     A.N.NESMEYANOV INSTITUTE OF ORGANOELEMENT COMPOUNDS OF RUSSIAN ACADEMY OF SCIENCES:
          IGOR S. GERASIMOV

 EXECUTION OF GAMESS BEGUN Fri Oct  7 20:50:44 2022

            ECHO OF THE FIRST FEW INPUT CARDS -
 INPUT CARD>!                                                                               
 INPUT CARD>!   GAMESS Calculation input file                                               
 INPUT CARD>!                                                                               
 INPUT CARD>!                                                                               
 INPUT CARD> $CONTRL SCFTYP=RHF MAXIT=200 RUNTYP=OPTIMIZE                                   
 INPUT CARD>         COORD=UNIQUE MULT=1                                                    
 INPUT CARD>         ICHARG=0                                                               
 INPUT CARD>         DFTTYP=B3LYP                                                           
 INPUT CARD>         MOLPLT=.FALSE. PLTORB=.FALSE.  $END                                    
 INPUT CARD> $SYSTEM TIMLIM=2879 MWORDS=250  $END                                           
 INPUT CARD>                                                                                
 INPUT CARD> $FORCE METHOD=SEMINUM NVIB=2 $END                                              
 INPUT CARD> $STATPT OPTTOL=0.0005 NSTEP=999 $END                                           
 INPUT CARD> $STATPT IHREP=0 HSSEND=.TRUE.  $END                                            
 INPUT CARD>                                                                                
 INPUT CARD> $DFT    METHOD=GRID  NLEB=590  $END                                            
 INPUT CARD>                                                                                
 INPUT CARD> $BASIS  GBASIS=N21 NGAUSS=3 $END                                               
 INPUT CARD>                                                                                
 INPUT CARD> $SCF    DIRSCF=.T. $END                                                        
 INPUT CARD> $GUESS  GUESS=HUCKEL  $END                                                     
 INPUT CARD>                                                                                
 INPUT CARD> $DATA                                                                          
 INPUT CARD>                                                                                
 INPUT CARD>  C1                                                                            
 INPUT CARD>O     8.0    -1.06657     1.33274     0.16695                                   
 INPUT CARD>C     6.0    -0.02804     0.71979    -0.04815                                   
 INPUT CARD>C     6.0     0.00806    -0.76110    -0.04742                                   
 INPUT CARD>C     6.0     1.16719    -1.44096    -0.08960                                   
 INPUT CARD>H     1.0     0.92589     1.23310    -0.24524                                   
 INPUT CARD>H     1.0    -0.94864    -1.26228     0.00010                                   
 INPUT CARD>H     1.0     2.13123    -0.94891    -0.11755                                   
 INPUT CARD>H     1.0     1.15928    -2.52427    -0.08215                                   
 INPUT CARD> $END                                                                           
 INPUT CARD>                                                                                
 INPUT CARD>                                                                                
 INPUT CARD>! Customizations after this line are persisted when using Do More Calculations  
  250000000 WORDS OF MEMORY AVAILABLE

     BASIS OPTIONS
     -------------
     GBASIS=N21          IGAUSS=       3      POLAR=NONE    
     NDFUNC=       0     NFFUNC=       0     DIFFSP=       F
     NPFUNC=       0      DIFFS=       F     BASNAM=        


     RUN TITLE
     ---------
                                                                                 

 THE POINT GROUP OF THE MOLECULE IS C1      
 THE ORDER OF THE PRINCIPAL AXIS IS     0

 ATOM      ATOMIC                      COORDINATES (BOHR)
           CHARGE         X                   Y                   Z
 O           8.0    -2.0155250467        2.5185134129        0.3154897537
 C           6.0    -0.0529879167        1.3602058687       -0.0909903063
 C           6.0     0.0152311915       -1.4382704493       -0.0896108063
 C           6.0     2.2056692756       -2.7230195593       -0.1693194485
 H           1.0     1.7496783948        2.3302211155       -0.4634364012
 H           1.0    -1.7926696610       -2.3853633198        0.0001889726
 H           1.0     4.0274407168       -1.7931798870       -0.2221372899
 H           1.0     2.1907215430       -4.7701786190       -0.1552409899

          INTERNUCLEAR DISTANCES (ANGS.)
          ------------------------------

                1 O          2 C          3 C          4 C          5 H     

   1 O       0.0000000    1.2249573 *  2.3632499 *  3.5705620    2.0370875 *
   2 C       1.2249573 *  0.0000000    1.4813301 *  2.4696424 *  1.1010513 *
   3 C       2.3632499 *  1.4813301 *  0.0000000    1.3444594 *  2.2041729 *
   4 C       3.5705620    2.4696424 *  1.3444594 *  0.0000000    2.6894324 *
   5 H       2.0370875 *  1.1010513 *  2.2041729 *  2.6894324 *  0.0000000  
   6 H       2.6030511 *  2.1859629 *  1.0810710 *  2.1252551 *  3.1306510  
   7 H       3.9386282    2.7298027 *  2.1326138 *  1.0827130 *  2.4960603 *
   8 H       4.4601553    3.4546794    2.1060109 *  1.0833645 *  3.7681426  

                6 H          7 H          8 H     

   1 O       2.6030511 *  3.9386282    4.4601553  
   2 C       2.1859629 *  2.7298027 *  3.4546794  
   3 C       1.0810710 *  2.1326138 *  2.1060109 *
   4 C       2.1252551 *  1.0827130 *  1.0833645 *
   5 H       3.1306510    2.4960603 *  3.7681426  
   6 H       0.0000000    3.0980061    2.4581925 *
   7 H       3.0980061    0.0000000    1.8514046 *
   8 H       2.4581925 *  1.8514046 *  0.0000000  

  * ... LESS THAN  3.000


     ATOMIC BASIS SET
     ----------------
 THE CONTRACTED PRIMITIVE FUNCTIONS HAVE BEEN UNNORMALIZED
 THE CONTRACTED BASIS FUNCTIONS ARE NOW NORMALIZED TO UNITY

  SHELL TYPE  PRIMITIVE        EXPONENT          CONTRACTION COEFFICIENT(S)

 O         

      1   S       1           322.0370000    0.059239393389
      1   S       2            48.4308000    0.351499960776
      1   S       3            10.4206000    0.707657921031

      2   L       4             7.4029400   -0.404453583190    0.244586106967
      2   L       5             1.5762000    1.221561761397    0.853955373466

      3   L       6             0.3736840    1.000000000000    1.000000000000

 C         

      4   S       7           172.2560000    0.061766907377
      4   S       8            25.9109000    0.358794042852
      4   S       9             5.5333500    0.700713083689

      5   L      10             3.6649800   -0.395895162119    0.236459946619
      5   L      11             0.7705450    1.215834355681    0.860618805716

      6   L      12             0.1958570    1.000000000000    1.000000000000

 C         

      7   S      13           172.2560000    0.061766907377
      7   S      14            25.9109000    0.358794042852
      7   S      15             5.5333500    0.700713083689

      8   L      16             3.6649800   -0.395895162119    0.236459946619
      8   L      17             0.7705450    1.215834355681    0.860618805716

      9   L      18             0.1958570    1.000000000000    1.000000000000

 C         

     10   S      19           172.2560000    0.061766907377
     10   S      20            25.9109000    0.358794042852
     10   S      21             5.5333500    0.700713083689

     11   L      22             3.6649800   -0.395895162119    0.236459946619
     11   L      23             0.7705450    1.215834355681    0.860618805716

     12   L      24             0.1958570    1.000000000000    1.000000000000

 H         

     13   S      25             5.4471780    0.156284978695
     13   S      26             0.8245472    0.904690876670

     14   S      27             0.1831916    1.000000000000

 H         

     15   S      28             5.4471780    0.156284978695
     15   S      29             0.8245472    0.904690876670

     16   S      30             0.1831916    1.000000000000

 H         

     17   S      31             5.4471780    0.156284978695
     17   S      32             0.8245472    0.904690876670

     18   S      33             0.1831916    1.000000000000

 H         

     19   S      34             5.4471780    0.156284978695
     19   S      35             0.8245472    0.904690876670

     20   S      36             0.1831916    1.000000000000

 TOTAL NUMBER OF BASIS SET SHELLS             =   20
 NUMBER OF CARTESIAN GAUSSIAN BASIS FUNCTIONS =   44
 NUMBER OF ELECTRONS                          =   30
 CHARGE OF MOLECULE                           =    0
 SPIN MULTIPLICITY                            =    1
 NUMBER OF OCCUPIED ORBITALS (ALPHA)          =   15
 NUMBER OF OCCUPIED ORBITALS (BETA )          =   15
 TOTAL NUMBER OF ATOMS                        =    8
 THE NUCLEAR REPULSION ENERGY IS      102.5933826577

 SELECTED MURRAY-HANDY-LAMING RADIAL GRID

 LEGACY BECKE'S FUZZY CELL METHOD

 SELECTED ORIGINAL BECKE'S PARTITION FUNCTION

     LEBEDEV GRID-BASED DFT OPTIONS
     ------------------------------
     DFTTYP=B3LYP   
     NRAD  =      96     NLEB  =     590
     NRAD0 =      24     NLEB0 =     110
     SWOFF =    5.00E-03 (PURE SCF -> DFT)
     SWITCH=    3.00E-04 (COARSE -> TIGHT GRID)
     THRESH=    0.00E+00 GTHRE=    1.00E+00

 GRIMME'S EMPIRICAL DISPERSION CORRECTION= F

     $CONTRL OPTIONS
     ---------------
 SCFTYP=RHF          RUNTYP=OPTIMIZE     EXETYP=RUN     
 MPLEVL=       0     CITYP =NONE         CCTYP =NONE         VBTYP =NONE    
 DFTTYP=B3LYP        TDDFT =NONE    
 MULT  =       1     ICHARG=       0     NZVAR =       0     COORD =UNIQUE  
 PP    =NONE         RELWFN=NONE         LOCAL =NONE         NUMGRD=       F
 ISPHER=      -1     NOSYM =       0     MAXIT =     200     UNITS =ANGS    
 PLTORB=       F     MOLPLT=       F     AIMPAC=       F     FRIEND=        
 NPRINT=       7     IREST =       0     GEOM  =INPUT   
 NORMF =       0     NORMP =       0     ITOL  =      20     ICUT  =       9
 INTTYP=BEST         GRDTYP=BEST         QMTTOL= 1.0E-06

     $SYSTEM OPTIONS
     ---------------
  REPLICATED MEMORY=   250000000 WORDS (ON EVERY NODE).
 DISTRIBUTED MEMDDI=           0 MILLION WORDS IN AGGREGATE,
 MEMDDI DISTRIBUTED OVER   1 PROCESSORS IS           0 WORDS/PROCESSOR.
 TOTAL MEMORY REQUESTED ON EACH PROCESSOR=   250000000 WORDS.
 TIMLIM=        2879.00 MINUTES, OR       2.0 DAYS.
 PARALL= F  BALTYP=  DLB     KDIAG=    0  COREFL= F
 MXSEQ2=     300 MXSEQ3=     150  mem10=         0

          ----------------
          PROPERTIES INPUT
          ----------------

     MOMENTS            FIELD           POTENTIAL          DENSITY
 IEMOM =       1   IEFLD =       0   IEPOT =       0   IEDEN =       0
 WHERE =COMASS     WHERE =NUCLEI     WHERE =NUCLEI     WHERE =NUCLEI  
 OUTPUT=BOTH       OUTPUT=BOTH       OUTPUT=BOTH       OUTPUT=BOTH    
 IEMINT=       0   IEFINT=       0                     IEDINT=       0
                                                       MORB  =       0
          EXTRAPOLATION IN EFFECT
          DIIS IN EFFECT
 ORBITAL PRINTING OPTION: NPREO=     1    44     2     1

     -------------------------------
     INTEGRAL TRANSFORMATION OPTIONS
     -------------------------------
     NWORD  =            0
     CUTOFF = 1.0E-09     MPTRAN =       0
     DIRTRF =       T     AOINTS =DUP     

          ----------------------
          INTEGRAL INPUT OPTIONS
          ----------------------
 NOPK  =       1 NORDER=       0 SCHWRZ=       T

     ------------------------------------------
     THE POINT GROUP IS C1 , NAXIS= 0, ORDER= 1
     ------------------------------------------

     DIMENSIONS OF THE SYMMETRY SUBSPACES ARE
 A   =   44

 ..... DONE SETTING UP THE RUN .....
 STEP CPU TIME =     0.01 TOTAL CPU TIME =          0.0 (      0.0 MIN)
 TOTAL WALL CLOCK TIME=          0.0 SECONDS, CPU UTILIZATION IS    25.00%


          -----------------------------
          STATIONARY POINT LOCATION RUN
          -----------------------------

 OBTAINING INITIAL HESSIAN, HESS=GUESS   
 CARTESIAN COORDINATE OPTIMIZATION USING BADGER'S RULE FORCE CONSTANT GUESS

          PARAMETERS CONTROLLING GEOMETRY SEARCH ARE
          METHOD =QA                  UPHESS =BFGS    
          NNEG   =         0          NFRZ   =         0
          NSTEP  =       999          IFOLOW =         1
          HESS   =GUESS               RESTAR =         F
          IHREP  =         0          HSSEND =         T
          NPRT   =         0          NPUN   =         0
          OPTTOL = 5.000E-04          RMIN   = 1.500E-03
          RMAX   = 1.000E-01          RLIM   = 7.000E-02
          DXMAX  = 3.000E-01          PURIFY =         F
          MOVIE  =         F          TRUPD  =         T
          TRMAX  = 5.000E-01          TRMIN  = 5.000E-02
          ITBMAT =         5          STPT   =         F
          STSTEP = 1.000E-02          PROJCT=          T

 BEGINNING GEOMETRY SEARCH POINT NSERCH=   0 ...

 COORDINATES OF ALL ATOMS ARE (ANGS)
   ATOM   CHARGE       X              Y              Z
 ------------------------------------------------------------
 O           8.0  -1.0665700000   1.3327400000   0.1669500000
 C           6.0  -0.0280400000   0.7197900000  -0.0481500000
 C           6.0   0.0080600000  -0.7611000000  -0.0474200000
 C           6.0   1.1671900000  -1.4409600000  -0.0896000000
 H           1.0   0.9258900000   1.2331000000  -0.2452400000
 H           1.0  -0.9486400000  -1.2622800000   0.0001000000
 H           1.0   2.1312300000  -0.9489100000  -0.1175500000
 H           1.0   1.1592800000  -2.5242700000  -0.0821500000

          ********************
          1 ELECTRON INTEGRALS
          ********************
 ...... END OF ONE-ELECTRON INTEGRALS ......
 STEP CPU TIME =     0.01 TOTAL CPU TIME =          0.0 (      0.0 MIN)
 TOTAL WALL CLOCK TIME=          0.1 SECONDS, CPU UTILIZATION IS    33.33%

          -------------
          GUESS OPTIONS
          -------------
          GUESS =HUCKEL            NORB  =       0          NORDER=       0
          MIX   =       F          PRTMO =       F          PUNMO =       F
          TOLZ  = 1.0E-08          TOLE  = 1.0E-05
          SYMDEN=       F          PURIFY=       F

 INITIAL GUESS ORBITALS GENERATED BY HUCKEL   ROUTINE.
 HUCKEL GUESS REQUIRES     22304 WORDS.

 SYMMETRIES FOR INITIAL GUESS ORBITALS FOLLOW.   BOTH SET(S).
    15 ORBITALS ARE OCCUPIED (    4 CORE ORBITALS).
     5=A        6=A        7=A        8=A        9=A       10=A       11=A   
    12=A       13=A       14=A       15=A       16=A       17=A       18=A   
    19=A       20=A       21=A       22=A       23=A       24=A       25=A   
 ...... END OF INITIAL ORBITAL SELECTION ......
 STEP CPU TIME =     0.00 TOTAL CPU TIME =          0.0 (      0.0 MIN)
 TOTAL WALL CLOCK TIME=          0.1 SECONDS, CPU UTILIZATION IS    28.57%

                    ----------------------
                    AO INTEGRAL TECHNOLOGY
                    ----------------------
     S,P,L SHELL ROTATED AXIS INTEGRALS, REPROGRAMMED BY
        KAZUYA ISHIMURA (IMS) AND JOSE SIERRA (SYNSTAR).
     S,P,D,L SHELL ROTATED AXIS INTEGRALS PROGRAMMED BY
        KAZUYA ISHIMURA (INSTITUTE FOR MOLECULAR SCIENCE).
     S,P,D,F,G SHELL TO TOTAL QUARTET ANGULAR MOMENTUM SUM 5,
        ERIC PROGRAM BY GRAHAM FLETCHER (ELORET AND NASA ADVANCED
        SUPERCOMPUTING DIVISION, AMES RESEARCH CENTER).
     S,P,D,F,G,L SHELL GENERAL RYS QUADRATURE PROGRAMMED BY
        MICHEL DUPUIS (PACIFIC NORTHWEST NATIONAL LABORATORY).

          --------------------
          2 ELECTRON INTEGRALS
          --------------------

 DIRECT SCF METHOD SKIPS INTEGRAL STORAGE ON DISK.
 DIRECT TRANSFORMATION SKIPS AO INTEGRAL STORAGE ON DISK.
  ...... END OF TWO-ELECTRON INTEGRALS .....
 STEP CPU TIME =     0.00 TOTAL CPU TIME =          0.0 (      0.0 MIN)
 TOTAL WALL CLOCK TIME=          0.1 SECONDS, CPU UTILIZATION IS    25.00%

          --------------------------
             R-B3LYP SCF CALCULATION
          --------------------------

     NUCLEAR ENERGY =       102.5933826577
     MAXIT =  200     NPUNCH=    2
     EXTRAP=T  DAMP=F  SHIFT=F  RSTRCT=F  DIIS=T  DEM=F  SOSCF=F
         DENSITY MATRIX CONVERGENCE THRESHOLD=  2.00E-05
     COARSE -> FINE DFT GRID SWITCH THRESHOLD=  3.00E-04 (SWITCH IN $DFT)
                   HF -> DFT SWITCH THRESHOLD=  5.00E-03 (SWOFF IN $DFT)
     MEMORY REQUIRED FOR RHF ITERS=    598129 WORDS.

 DIRECT SCF CALCULATION, SCHWRZ=T   FDIFF=T,  DIRTHR=  0.00E+00 NITDIR=10
 SCHWARZ INEQUALITY OVERHEAD:       977 INTEGRALS, T=        0.00

 DFT CODE IS SWITCHING FROM THE FINE GRID NRAD= 96,  NLEB=  590
                      TO THE COARSE GRID NRAD0= 24, NLEB0=  110

     EXCHANGE FUNCTIONAL   =B88&HFX   
     CORRELATION FUNCTIONAL=LYP88&VWN5
     DFT THRESHOLD         =.883E-08
     GRID CHANGE THRESHOLD =.300E-03
 FOR AN EULER-MACLAURIN QUADRATURE USING  96 RADIAL POINTS:
 SMALLEST GAUSSIAN PRIMITIVE EXPONENT=        0.1831915800 OF TYPE -S-
 ON ATOM NUMBER   5 HAS RADIAL NORMALIZATION=  1.000000
  LARGEST GAUSSIAN PRIMITIVE EXPONENT=      322.0370000000 OF TYPE -S-
 ON ATOM NUMBER   1 HAS RADIAL NORMALIZATION=  1.000000
 DFT IS SWITCHED OFF, PERFORMING PURE SCF UNTIL SWOFF THRESHOLD IS REACHED.

                                                                                   NONZERO     BLOCKS
 ITER EX DEM     TOTAL ENERGY        E CHANGE  DENSITY CHANGE    DIIS ERROR      INTEGRALS    SKIPPED
   1  0  0     -189.2179486096  -189.2179486096   0.589933850   0.628440700         435243       3402
          * * *   INITIATING DIIS PROCEDURE   * * *
   2  1  0     -189.6381903465    -0.4202417369   0.097829409   0.144052946         434907       3642
   3  2  0     -189.6631416990    -0.0249513525   0.096038803   0.116038393         433733       4028
   4  3  0     -189.6868300898    -0.0236883908   0.020792300   0.009306808         432181       4365
   5  4  0     -189.6872385574    -0.0004084676   0.004478580   0.002555257         428716       4873
 CONVERGED TO SWOFF, SO DFT CALCULATION IS NOW SWITCHED ON.
          * * *   INITIATING DIIS PROCEDURE   * * *
   6  5  0     -190.7216187073    -1.0343801499   0.154047146   0.081073230         435270       3381
   7  6  0     -190.7342642435    -0.0126455362   0.086572371   0.051255103         433934       3979
   8  7  0     -190.7309576552     0.0033065883   0.067166723   0.082122758         432723       4214
   9  8  0     -190.7397577664    -0.0088001112   0.010402667   0.011723837         431489       4495
  10  9  0     -190.7400614436    -0.0003036772   0.001826947   0.002471975         427383       4982
  11 10  0     -190.7400674634    -0.0000060198   0.000818294   0.001132898         421973       5604
  12 11  0     -190.7400697181    -0.0000022547   0.000126510   0.000089312         414990       6146
 DFT CODE IS SWITCHING BACK TO THE FINE GRID
          * * *   INITIATING DIIS PROCEDURE   * * *
  13 12  0     -190.7381144882     0.0019552298   0.000902657   0.001218177         435299       3348
  14 13  0     -190.7381185959    -0.0000041076   0.000612994   0.000479359         421390       5573
  15 14  0     -190.7381181599     0.0000004360   0.000591054   0.000786457         414234       6266
  16 15  0     -190.7381189370    -0.0000007771   0.000147438   0.000125044         411972       6489
  17 16  0     -190.7381189604    -0.0000000234   0.000016480   0.000017714         401847       7140
  18 17  0     -190.7381189612    -0.0000000008   0.000008021   0.000010866         387740       8015

          -----------------
          DENSITY CONVERGED
          -----------------
     TIME TO FORM FOCK OPERATORS=       4.7 SECONDS (       0.3 SEC/ITER)
     FOCK TIME ON FIRST ITERATION=       0.0, LAST ITERATION=       0.7
     TIME TO SOLVE SCF EQUATIONS=       0.0 SECONDS (       0.0 SEC/ITER)

 FINAL R-B3LYP ENERGY IS     -190.7381189612 AFTER  18 ITERATIONS
 DFT EXCHANGE + CORRELATION ENERGY =       -21.0919973146
 TOTAL ELECTRON NUMBER             =        29.9999930154

          ------------
          EIGENVECTORS
          ------------

                      1          2          3          4          5
                  -19.0355   -10.2108   -10.1501   -10.1426    -1.0531
                     A          A          A          A          A   
    1  O  1  S    0.982698   0.000331  -0.000049   0.000006  -0.208738
    2  O  1  S    0.106746   0.001069  -0.000510  -0.000181   0.198168
    3  O  1  X    0.003812  -0.000695  -0.000035  -0.000161   0.128263
    4  O  1  Y   -0.002430   0.000701   0.000177  -0.000010  -0.077833
    5  O  1  Z   -0.000830   0.000125   0.000037   0.000006  -0.026646
    6  O  1  S   -0.060739  -0.002477   0.001484  -0.000032   0.648322
    7  O  1  X   -0.013360  -0.005158   0.000289   0.000122   0.121504
    8  O  1  Y    0.009514   0.001407  -0.000823   0.001510  -0.077104
    9  O  1  Z    0.002923   0.001152  -0.000135   0.000007  -0.025783
   10  C  2  S    0.000055   0.985278   0.002143   0.007874  -0.125099
   11  C  2  S    0.000351   0.105059  -0.000695  -0.002465   0.137331
   12  C  2  X   -0.001136  -0.000879  -0.000310  -0.000082  -0.141171
   13  C  2  Y    0.001825   0.000475   0.000590   0.000916   0.072867
   14  C  2  Z    0.000287   0.000203  -0.000009   0.000036   0.029023
   15  C  2  S    0.024049  -0.060531  -0.000752   0.024913   0.139362
   16  C  2  X   -0.026113  -0.010068   0.000128   0.002589   0.069598
   17  C  2  Y    0.004253   0.012557  -0.000424  -0.014054  -0.014238
   18  C  2  Z    0.004957   0.001852  -0.000127  -0.000165  -0.013112
   19  C  3  S    0.000106  -0.008087  -0.072223   0.983133  -0.020718
   20  C  3  S    0.000264  -0.003734  -0.012278   0.107960   0.022021
   21  C  3  X   -0.000981  -0.000467  -0.002831   0.000831  -0.004266
   22  C  3  Y   -0.000354  -0.001565   0.001393   0.000480   0.023694
   23  C  3  Z    0.000072   0.000053   0.000103  -0.000026   0.001131
   24  C  3  S   -0.001988   0.019996   0.032908  -0.086760   0.016738
   25  C  3  X    0.014495   0.003966   0.014801  -0.012513  -0.052134
   26  C  3  Y   -0.005259   0.014465  -0.007882  -0.007027   0.014791
   27  C  3  Z   -0.001625  -0.000606  -0.000482   0.000484   0.006815
   28  C  4  S   -0.000023  -0.002896   0.982853   0.071958  -0.003409
   29  C  4  S   -0.000463  -0.001549   0.106385   0.003155   0.005749
   30  C  4  X    0.000445   0.000593  -0.000342   0.002089  -0.004806
   31  C  4  Y   -0.001196  -0.001328   0.000180  -0.001521   0.007935
   32  C  4  Z    0.000036  -0.000064   0.000053  -0.000067   0.000318
   33  C  4  S   -0.009033  -0.000732  -0.079849   0.025224   0.037489
   34  C  4  X    0.003663  -0.001493   0.008771  -0.010570  -0.014357
   35  C  4  Y    0.001966   0.001608  -0.005055   0.012760  -0.009460
   36  C  4  Z    0.000031   0.000275  -0.000447   0.000354  -0.000677
   37  H  5  S    0.000771  -0.001671  -0.000150  -0.001469   0.023253
   38  H  5  S    0.005888   0.014867   0.000107  -0.000157  -0.034113
   39  H  6  S    0.001532  -0.000619  -0.000904  -0.002483   0.003770
   40  H  6  S    0.004832   0.003818   0.000805   0.010546  -0.016127
   41  H  7  S   -0.000522  -0.000232  -0.001899  -0.001929   0.002895
   42  H  7  S   -0.000271   0.000451   0.013651  -0.000459   0.002831
   43  H  8  S    0.000595  -0.000027  -0.001828  -0.000760  -0.000844
   44  H  8  S    0.002138   0.002139   0.013762   0.003759  -0.011557

                      6          7          8          9         10
                   -0.8004    -0.6460    -0.5742    -0.4835    -0.4692
                     A          A          A          A          A   
    1  O  1  S    0.041143  -0.071577  -0.037158  -0.003925  -0.068444
    2  O  1  S   -0.040389   0.069766   0.038012   0.003741   0.061226
    3  O  1  X   -0.013748  -0.016494  -0.073508  -0.084983  -0.123013
    4  O  1  Y   -0.006225   0.034586  -0.047029  -0.135895   0.105687
    5  O  1  Z    0.003306   0.004155   0.012894   0.021232   0.039901
    6  O  1  S   -0.140474   0.266402   0.132802   0.016463   0.280601
    7  O  1  X   -0.012480  -0.009755  -0.062858  -0.070508  -0.106590
    8  O  1  Y   -0.000398   0.022513  -0.036257  -0.112791   0.091663
    9  O  1  Z    0.002909   0.002503   0.011328   0.017519   0.035556
   10  C  2  S   -0.053300   0.120322   0.090988   0.006862   0.057600
   11  C  2  S    0.062742  -0.137392  -0.101245  -0.004730  -0.070751
   12  C  2  X    0.055822  -0.086515  -0.169722  -0.142801   0.083867
   13  C  2  Y   -0.102579   0.127079  -0.109504  -0.250882  -0.029565
   14  C  2  Z   -0.009339   0.020363   0.030241   0.035420   0.004115
   15  C  2  S    0.102893  -0.337425  -0.299104  -0.035837  -0.195913
   16  C  2  X    0.014991  -0.053603  -0.134834  -0.109162   0.000649
   17  C  2  Y   -0.022558   0.070223  -0.038240  -0.181711   0.035721
   18  C  2  Z   -0.002646   0.013052   0.023707   0.028182   0.015589
   19  C  3  S   -0.169856   0.062035  -0.097984   0.017652  -0.032146
   20  C  3  S    0.182255  -0.065011   0.101222  -0.016430   0.035829
   21  C  3  X    0.084907   0.090582  -0.133293  -0.036218   0.264032
   22  C  3  Y   -0.015667  -0.176444  -0.097504   0.239940  -0.030813
   23  C  3  Z   -0.003302  -0.000650   0.010843   0.009556  -0.007546
   24  C  3  S    0.375502  -0.193737   0.334644  -0.082329   0.113379
   25  C  3  X    0.031324   0.012847  -0.065160  -0.017792   0.184229
   26  C  3  Y    0.006108  -0.044422  -0.038082   0.129930   0.030546
   27  C  3  Z   -0.001684   0.000845   0.005099   0.006695  -0.005981
   28  C  4  S   -0.150525  -0.140202   0.049983  -0.015188   0.008401
   29  C  4  S    0.164962   0.145802  -0.050673   0.011190  -0.001988
   30  C  4  X   -0.083477   0.025784  -0.139985   0.252558  -0.144240
   31  C  4  Y    0.057275  -0.058327  -0.021109   0.080727   0.305058
   32  C  4  Z    0.003475   0.000678   0.006146  -0.004920   0.004867
   33  C  4  S    0.313693   0.429412  -0.180818   0.086005  -0.081421
   34  C  4  X   -0.009403  -0.000969  -0.067369   0.152601  -0.068419
   35  C  4  Y    0.000329  -0.019918  -0.030532   0.066173   0.186452
   36  C  4  Z    0.000824   0.001116   0.003441  -0.002431   0.002302
   37  H  5  S    0.033508  -0.094816  -0.170857  -0.139664  -0.024668
   38  H  5  S    0.006709  -0.026565  -0.083993  -0.085210  -0.001527
   39  H  6  S    0.073734  -0.043376   0.158232  -0.061254  -0.101318
   40  H  6  S    0.005207  -0.009496   0.086877  -0.038976  -0.062289
   41  H  7  S    0.070610   0.097406  -0.110457   0.169775  -0.002354
   42  H  7  S    0.006835   0.031790  -0.065643   0.120846  -0.006677
   43  H  8  S    0.065991   0.123055  -0.030291  -0.034179  -0.199552
   44  H  8  S   -0.001476   0.048265  -0.017278  -0.023691  -0.159840

                     11         12         13         14         15
                   -0.4071    -0.3945    -0.3913    -0.2868    -0.2460
                     A          A          A          A          A   
    1  O  1  S   -0.079728  -0.033954   0.010279   0.000215  -0.000101
    2  O  1  S    0.068838   0.029048  -0.008469   0.000240   0.003488
    3  O  1  X   -0.303523  -0.114076   0.123616  -0.059396   0.230726
    4  O  1  Y    0.205759   0.029026   0.069786   0.005532   0.418997
    5  O  1  Z   -0.037622   0.294148   0.174357  -0.220473  -0.049225
    6  O  1  S    0.317167   0.133553  -0.042791  -0.006902  -0.021541
    7  O  1  X   -0.294373  -0.108333   0.114623  -0.067669   0.245197
    8  O  1  Y    0.194579   0.032019   0.061109   0.006064   0.456020
    9  O  1  Z   -0.036505   0.288792   0.172804  -0.241949  -0.051678
   10  C  2  S    0.030380  -0.006892   0.020389  -0.001089   0.000090
   11  C  2  S   -0.055188  -0.002097  -0.020984  -0.000128   0.011691
   12  C  2  X    0.235920   0.146114   0.041884   0.001528  -0.056051
   13  C  2  Y   -0.079337  -0.136577   0.152466   0.002058  -0.109960
   14  C  2  Z   -0.150479   0.221601   0.173329  -0.049898   0.010863
   15  C  2  S   -0.027091   0.068496  -0.083909   0.012896  -0.057489
   16  C  2  X    0.028695   0.045800   0.064524  -0.016199   0.001541
   17  C  2  Y    0.018833  -0.076378   0.118936   0.007710   0.138168
   18  C  2  Z   -0.100428   0.228408   0.163341  -0.071815  -0.004163
   19  C  3  S   -0.005800   0.008813  -0.014124   0.001226  -0.046181
   20  C  3  S   -0.001384  -0.008520   0.007899  -0.000455   0.029878
   21  C  3  X   -0.179833   0.045163  -0.171292   0.015158  -0.021968
   22  C  3  Y    0.039799   0.102598  -0.120446  -0.001110   0.192544
   23  C  3  Z   -0.050017   0.114813   0.098595   0.307996   0.003109
   24  C  3  S    0.064483  -0.039715   0.097728  -0.008967   0.435079
   25  C  3  X   -0.063556   0.066538  -0.132199   0.021532   0.096401
   26  C  3  Y    0.029896   0.067905  -0.088942   0.001465   0.210738
   27  C  3  Z   -0.046579   0.091308   0.079090   0.319642  -0.008995
   28  C  4  S    0.017556   0.003722   0.010571   0.000355   0.010008
   29  C  4  S   -0.024511  -0.004381  -0.013482  -0.000619  -0.004849
   30  C  4  X    0.146146  -0.057512   0.168489   0.008048   0.046040
   31  C  4  Y   -0.074365  -0.162219   0.146169   0.000343  -0.043409
   32  C  4  Z   -0.034456   0.066745   0.045139   0.324308   0.006126
   33  C  4  S   -0.077313  -0.026971  -0.034027  -0.004080  -0.132992
   34  C  4  X    0.093345  -0.042879   0.120248   0.008181   0.086543
   35  C  4  Y   -0.036231  -0.125352   0.125441   0.002960  -0.108535
   36  C  4  Z   -0.027539   0.056914   0.040059   0.337452   0.010489
   37  H  5  S    0.096778   0.019617   0.035965   0.011950  -0.162398
   38  H  5  S    0.127560   0.028492   0.038929   0.012459  -0.305821
   39  H  6  S    0.106863  -0.071385   0.173933  -0.000538  -0.023286
   40  H  6  S    0.130254  -0.047059   0.146565   0.005739  -0.062233
   41  H  7  S    0.054912  -0.101284   0.157323  -0.001698  -0.013709
   42  H  7  S    0.068506  -0.091298   0.157985  -0.000708  -0.034253
   43  H  8  S    0.031300   0.119307  -0.126006   0.000772   0.038871
   44  H  8  S    0.046463   0.112803  -0.108857   0.002378   0.039590

                     16         17         18         19         20
                   -0.0576     0.0636     0.1322     0.1363     0.1689
                     A          A          A          A          A   
    1  O  1  S   -0.001343   0.004472   0.018688  -0.000147   0.000539
    2  O  1  S    0.000966  -0.003033  -0.010283   0.004882  -0.009005
    3  O  1  X    0.059093   0.037496  -0.078607   0.024232  -0.062522
    4  O  1  Y   -0.009832   0.016429   0.009240   0.041860  -0.006070
    5  O  1  Z    0.291043   0.216411  -0.008803  -0.017762   0.020066
    6  O  1  S    0.011461  -0.039973  -0.183357  -0.018780   0.048955
    7  O  1  X    0.079544   0.051980  -0.151432   0.057441  -0.082696
    8  O  1  Y   -0.012243   0.021244   0.007198   0.097980  -0.022982
    9  O  1  Z    0.381874   0.331109  -0.005424  -0.031273   0.028794
   10  C  2  S   -0.000911   0.002613  -0.034664   0.050590  -0.128052
   11  C  2  S   -0.000116   0.000575   0.029952  -0.028477   0.076403
   12  C  2  X   -0.056296  -0.082166   0.046011  -0.156499   0.189858
   13  C  2  Y    0.001388  -0.001461   0.037921  -0.101165   0.000282
   14  C  2  Z   -0.279808  -0.342495   0.032435   0.046235  -0.058679
   15  C  2  S    0.009706  -0.049986   0.318851  -0.639891   1.600378
   16  C  2  X   -0.051979  -0.161456   0.068711  -0.381184   0.616801
   17  C  2  Y   -0.001906   0.032177   0.280925  -0.215117  -0.176255
   18  C  2  Z   -0.330325  -0.548740   0.056310   0.120349  -0.153369
   19  C  3  S   -0.000347  -0.005346  -0.034551  -0.070760   0.027400
   20  C  3  S   -0.000202   0.001274   0.009876   0.049859  -0.014359
   21  C  3  X   -0.004340   0.004754  -0.134761  -0.131960   0.026612
   22  C  3  Y   -0.006479   0.000222  -0.073793  -0.062754  -0.170172
   23  C  3  Z   -0.183322   0.355001  -0.019749  -0.009542   0.019085
   24  C  3  S    0.004184   0.092403   0.675976   0.748012  -0.289960
   25  C  3  X   -0.036184  -0.007657  -0.432250  -0.346936   0.123627
   26  C  3  Y   -0.005070   0.023923  -0.049471  -0.167472  -0.636716
   27  C  3  Z   -0.311073   0.669115  -0.028649  -0.026267   0.054596
   28  C  4  S   -0.003582  -0.011391  -0.117067   0.061320   0.062314
   29  C  4  S    0.003992   0.010639   0.072556  -0.038153  -0.033199
   30  C  4  X    0.005625  -0.010863   0.093011  -0.162159  -0.109696
   31  C  4  Y    0.007455   0.000106  -0.169369  -0.134075  -0.107419
   32  C  4  Z    0.315599  -0.205370   0.005680   0.016434  -0.013853
   33  C  4  S    0.039180   0.113353   1.510636  -0.720506  -0.869843
   34  C  4  X    0.012126  -0.003494   0.349509  -0.500995  -0.282283
   35  C  4  Y   -0.000320  -0.039708  -0.582290  -0.368357  -0.414845
   36  C  4  Z    0.493247  -0.466155   0.020268   0.038123  -0.024467
   37  H  5  S   -0.003476   0.013272   0.027819   0.038456  -0.092802
   38  H  5  S   -0.021105   0.074244  -0.305296   0.922145  -1.370546
   39  H  6  S   -0.009772  -0.015233  -0.042528  -0.104219  -0.009928
   40  H  6  S   -0.036750  -0.099491  -0.785978  -1.056156  -0.085569
   41  H  7  S    0.004170   0.001027  -0.014778   0.064047   0.103892
   42  H  7  S   -0.007040  -0.040761  -0.663132   1.177405   1.039073
   43  H  8  S   -0.004778  -0.010078  -0.098032  -0.007127  -0.043467
   44  H  8  S   -0.023370  -0.094485  -1.435468  -0.175519  -0.214005

                     21         22         23         24         25
                    0.2187     0.3112     0.3462     0.3978     0.6830
                     A          A          A          A          A   
    1  O  1  S   -0.000498  -0.114537  -0.006199  -0.055575   0.009609
    2  O  1  S    0.001191   0.060101   0.023021   0.007487  -0.003797
    3  O  1  X   -0.069822   0.192179  -0.001453   0.050760  -0.036632
    4  O  1  Y   -0.078602  -0.084830  -0.155939  -0.073689  -0.025871
    5  O  1  Z    0.008990  -0.039196   0.002040  -0.008645  -0.017597
    6  O  1  S    0.016611   1.313384  -0.100241   0.824732  -0.117449
    7  O  1  X   -0.108893   0.594330  -0.067760   0.230419  -0.087085
    8  O  1  Y   -0.140077  -0.230783  -0.269967  -0.347765   0.036028
    9  O  1  Z    0.016248  -0.116102   0.027117  -0.057549  -0.074665
   10  C  2  S    0.001378   0.053706   0.088062   0.073295   0.000237
   11  C  2  S   -0.013356   0.001737  -0.029744  -0.015509  -0.040991
   12  C  2  X    0.081219   0.103500   0.103269   0.189649  -0.229396
   13  C  2  Y    0.216389  -0.145326   0.255590   0.283915   0.044942
   14  C  2  Z   -0.016994  -0.028532  -0.018840  -0.052416  -0.684139
   15  C  2  S    0.253229  -0.485504  -1.399224  -1.222677   0.271781
   16  C  2  X    0.378055   1.007479  -0.203156   1.299402   0.074074
   17  C  2  Y    0.422245  -1.257144   1.269619   0.635510  -0.006805
   18  C  2  Z   -0.062312  -0.236008  -0.020529  -0.215799   0.687060
   19  C  3  S   -0.112327  -0.032149  -0.142712   0.007544  -0.017173
   20  C  3  S    0.062500   0.037617   0.050803   0.032532  -0.022885
   21  C  3  X   -0.132213  -0.030114   0.267878  -0.206463  -0.078145
   22  C  3  Y   -0.083402  -0.052787   0.180326   0.267255   0.139855
   23  C  3  Z    0.005207   0.025474  -0.013646   0.016339  -0.427195
   24  C  3  S    1.571134   0.294162   2.698381  -1.227001  -0.026306
   25  C  3  X   -0.680510   0.199266   1.560101  -1.865667   0.241256
   26  C  3  Y   -0.473113  -1.016631   0.977714   1.811008  -0.319210
   27  C  3  Z    0.048078   0.065755  -0.054100   0.120336   0.140299
   28  C  4  S    0.059509   0.019021   0.082222  -0.061450   0.005118
   29  C  4  S   -0.037616  -0.034604  -0.010878  -0.033828  -0.052825
   30  C  4  X    0.124865   0.170181  -0.022144  -0.131105   0.208331
   31  C  4  Y    0.213841  -0.149787  -0.142450  -0.122802  -0.126962
   32  C  4  Z   -0.009141   0.003699   0.001889   0.001013  -0.560209
   33  C  4  S   -0.655021  -0.307871  -1.597004   2.093193  -0.216043
   34  C  4  X    0.665231   0.805710   0.830970  -1.986443  -0.153341
   35  C  4  Y    0.848180  -0.125581  -1.537983   0.662839   0.125586
   36  C  4  Z   -0.034812  -0.058060  -0.030498   0.050544   0.491418
   37  H  5  S    0.015779   0.055388   0.007601   0.045397  -0.079846
   38  H  5  S   -0.638421   0.118576  -0.095097  -0.933801   0.061929
   39  H  6  S   -0.018796   0.095047  -0.012893   0.053032  -0.048932
   40  H  6  S   -1.455553  -0.352110   0.849359  -0.365543   0.064485
   41  H  7  S    0.017858  -0.068062  -0.076755  -0.016049   0.019827
   42  H  7  S   -0.680870  -0.524970   0.583735   0.759040   0.024429
   43  H  8  S    0.030846   0.001077   0.014514   0.170242   0.002771
   44  H  8  S    1.286895  -0.213696  -0.747488  -0.145127   0.042422

                     26         27         28         29         30
                    0.6890     0.7170     0.7568     0.7876     0.8093
                     A          A          A          A          A   
    1  O  1  S   -0.013992   0.045968  -0.005973  -0.021019   0.001015
    2  O  1  S   -0.005542  -0.063028   0.008601   0.035074  -0.012390
    3  O  1  X    0.050049  -0.188111   0.016939   0.066809   0.030758
    4  O  1  Y    0.077853   0.022219  -0.009170  -0.260979   0.032904
    5  O  1  Z   -0.020603   0.042174  -0.064895  -0.008894   0.013578
    6  O  1  S    0.234359  -0.245741   0.010261  -0.125714   0.012385
    7  O  1  X    0.116808  -0.253664   0.013874   0.056957   0.042963
    8  O  1  Y   -0.063562   0.145348  -0.028058  -0.252321  -0.009712
    9  O  1  Z   -0.056360   0.048614  -0.104223  -0.008165   0.084146
   10  C  2  S   -0.013499  -0.051982   0.006696   0.020826   0.000449
   11  C  2  S    0.075665  -0.066241   0.020631  -0.079564  -0.031471
   12  C  2  X    0.069071  -0.468901  -0.049248   0.266377   0.121963
   13  C  2  Y   -0.125826   0.296573  -0.080224  -0.855723   0.000250
   14  C  2  Z   -0.225498   0.058134  -0.683064  -0.033898   0.233891
   15  C  2  S   -0.591707   0.600600  -0.090497  -0.557411  -0.121475
   16  C  2  X    0.229659   0.131371   0.114538   0.078084  -0.160253
   17  C  2  Y    0.050899  -0.091008   0.085019   1.694802  -0.003399
   18  C  2  Z    0.181253   0.003057   0.789089  -0.049520  -0.568422
   19  C  3  S    0.051342  -0.003623   0.003834   0.012813  -0.017088
   20  C  3  S    0.048663  -0.074007   0.013046   0.029152   0.031490
   21  C  3  X    0.113461  -0.147897   0.021513  -0.169024   0.095444
   22  C  3  Y   -0.533226  -0.276410   0.059597  -0.048372  -0.208138
   23  C  3  Z   -0.153173   0.139873   0.070592   0.069880  -0.904310
   24  C  3  S    0.140744  -0.080152   0.056815   0.692507  -0.091157
   25  C  3  X   -0.484888   0.511309  -0.101704   0.344340  -0.032692
   26  C  3  Y    0.863968  -0.056748   0.006517   0.778796   0.233949
   27  C  3  Z    0.079205  -0.122619  -0.089671  -0.076507   1.265977
   28  C  4  S   -0.011199   0.014512  -0.004561  -0.000614   0.028268
   29  C  4  S    0.111169  -0.085403   0.011739   0.093813   0.032207
   30  C  4  X   -0.644688   0.111676  -0.011428   0.078810   0.160026
   31  C  4  Y    0.159921  -0.435837   0.077956   0.000507  -0.118672
   32  C  4  Z   -0.168197   0.175524   0.799153  -0.034278   0.355622
   33  C  4  S    0.536779  -0.288491   0.064921  -0.228220  -0.065361
   34  C  4  X    0.760832   0.238069  -0.023268  -0.451089  -0.259214
   35  C  4  Y   -0.079847   0.636683  -0.112279  -0.035946   0.184765
   36  C  4  Z    0.141453  -0.157674  -0.771192   0.059538  -0.668361
   37  H  5  S    0.090490  -0.517856   0.078865  -0.361354  -0.013133
   38  H  5  S   -0.099422   0.162041  -0.042936  -0.178187   0.052667
   39  H  6  S    0.324054   0.274262  -0.012991   0.346562  -0.026812
   40  H  6  S   -0.212139   0.051677  -0.030656   0.033788   0.033371
   41  H  7  S   -0.283294  -0.314190   0.018878   0.189835   0.192444
   42  H  7  S   -0.154031  -0.058461   0.006908   0.169286  -0.042562
   43  H  8  S    0.114523   0.294367  -0.057012   0.215998   0.238393
   44  H  8  S   -0.096091   0.111219  -0.021820  -0.076801  -0.025499

                     31         32         33         34         35
                    0.8138     0.8527     0.9989     1.0391     1.0665
                     A          A          A          A          A   
    1  O  1  S    0.001937   0.008165   0.002065   0.005905   0.004155
    2  O  1  S    0.011709  -0.004770  -0.003490   0.005468   0.016462
    3  O  1  X   -0.084524  -0.185645   0.034084  -0.011126   0.016817
    4  O  1  Y   -0.081858   0.050545  -0.030307  -0.018791  -0.053016
    5  O  1  Z    0.028242   0.034461  -0.003701  -0.007997  -0.004254
    6  O  1  S   -0.019037   0.239406  -0.103249  -0.178980  -0.136764
    7  O  1  X   -0.062882  -0.134167   0.005137   0.075366  -0.087536
    8  O  1  Y   -0.007505  -0.012219   0.060321   0.243007   0.053205
    9  O  1  Z    0.057086   0.026617  -0.003091  -0.008875   0.021752
   10  C  2  S   -0.008356  -0.018921   0.004183  -0.042886   0.010133
   11  C  2  S    0.079209   0.320642  -0.169534   0.207529  -0.062489
   12  C  2  X   -0.172746  -0.734866   0.151259   0.456001  -0.172095
   13  C  2  Y   -0.065196  -0.088751   0.010662   0.487859  -0.008756
   14  C  2  Z    0.170479   0.148538  -0.023623  -0.106648   0.012563
   15  C  2  S    0.293343   0.211695   0.749000   0.307254   0.152761
   16  C  2  X    0.190226   1.051067  -0.177205  -1.184982  -0.176722
   17  C  2  Y    0.207735   0.250402  -0.388534  -1.590364   0.057763
   18  C  2  Z   -0.331665  -0.201525   0.039183   0.246734   0.023680
   19  C  3  S    0.044566   0.009442   0.017762   0.022577  -0.026663
   20  C  3  S   -0.099543   0.229334  -0.037207   0.118616   0.124714
   21  C  3  X   -0.492659   0.300147   0.286854  -0.096442  -0.778424
   22  C  3  Y    0.485094   0.341347   0.263651   0.400889  -0.118544
   23  C  3  Z   -0.323558  -0.025053  -0.017865   0.001514   0.038783
   24  C  3  S    0.316745  -0.047625  -0.117947  -0.248683   0.349512
   25  C  3  X    0.603601  -0.646081  -0.782141   0.974245   1.745261
   26  C  3  Y   -0.494953  -0.283018  -1.167636  -1.506826  -0.096801
   27  C  3  Z    0.477129   0.073415   0.036226  -0.077802  -0.086705
   28  C  4  S   -0.072116   0.022610  -0.003265   0.013789   0.026703
   29  C  4  S   -0.085553   0.152237   0.015774   0.137158  -0.089180
   30  C  4  X   -0.327773  -0.162856  -0.491827  -0.233527  -0.553791
   31  C  4  Y    0.225845   0.113503  -0.816562   0.379618  -0.011914
   32  C  4  Z    0.126089   0.004856   0.018222  -0.007809   0.018822
   33  C  4  S   -0.064518   0.112789   0.083444  -0.806246  -0.656120
   34  C  4  X    0.516737  -0.018255   1.035796   0.823044   1.195579
   35  C  4  Y   -0.387273  -0.014276   1.742999  -0.637715  -0.275162
   36  C  4  Z   -0.252883  -0.013015  -0.039162   0.004214  -0.036837
   37  H  5  S   -0.106436   0.387319  -0.167202  -0.637481   0.139160
   38  H  5  S   -0.165228  -0.827647   0.253750   1.695456  -0.090174
   39  H  6  S    0.183590   0.436380   0.153504   0.371389  -0.660677
   40  H  6  S   -0.002621  -0.573000  -0.773561  -0.227892   1.482050
   41  H  7  S   -0.511187   0.402587   0.480644   0.318441   0.553414
   42  H  7  S    0.187824  -0.198805  -1.439015  -0.446499  -0.987875
   43  H  8  S   -0.525934   0.329859  -0.546823   0.432952   0.272781
   44  H  8  S    0.091290  -0.257780   1.463154  -0.657290  -0.273206

                     36         37         38         39         40
                    1.1970     1.2926     1.3977     1.5099     1.5238
                     A          A          A          A          A   
    1  O  1  S   -0.051994  -0.018780  -0.023574   0.004472   0.001126
    2  O  1  S    0.075581   0.022722   0.056933  -0.009153   0.002531
    3  O  1  X   -0.288459   0.025675  -0.280755   0.015997   0.356481
    4  O  1  Y    0.025505   0.004492   0.049436  -0.124042  -0.150892
    5  O  1  Z    0.018074  -0.036927   0.093278  -0.824101   0.571169
    6  O  1  S    1.015350   0.232154   0.253467  -0.021582   0.033769
    7  O  1  X    0.356623   0.036086   0.367005  -0.054292  -0.429291
    8  O  1  Y   -0.372493  -0.130527  -0.148656   0.164093   0.185413
    9  O  1  Z   -0.057234   0.013964  -0.114095   0.904338  -0.627729
   10  C  2  S   -0.018447   0.017224  -0.030262   0.000994   0.000765
   11  C  2  S    0.355407  -0.818830   0.713692  -0.524052  -0.744873
   12  C  2  X   -0.270028  -0.134683   0.178277  -0.130779  -0.206205
   13  C  2  Y   -0.003124  -0.098590  -0.290286   0.032847   0.054512
   14  C  2  Z    0.022673   0.030793  -0.019508   0.054459   0.014150
   15  C  2  S   -1.898721   1.383769  -0.334277   1.585560   2.084999
   16  C  2  X    2.036131   1.105730   0.245322   0.404922   0.846267
   17  C  2  Y    0.844988   0.036112  -0.022984  -0.420472  -0.541726
   18  C  2  Z   -0.329133  -0.196122  -0.023552  -0.392054   0.118744
   19  C  3  S   -0.010359   0.031677  -0.015032   0.007444   0.011564
   20  C  3  S   -0.001945  -0.910671   0.023899   0.172474   0.249377
   21  C  3  X    0.244346   0.327054   0.236671   0.075664   0.132411
   22  C  3  Y   -0.327370   0.210408   0.348139   0.094201   0.102508
   23  C  3  Z   -0.035670  -0.028085  -0.014038  -0.018415  -0.012359
   24  C  3  S    0.072776   1.054032   0.459852  -0.281815  -0.508209
   25  C  3  X   -1.786083  -1.592808  -1.493049  -0.361164  -0.718708
   26  C  3  Y    2.074311  -0.899084  -1.692356  -0.985946  -1.133972
   27  C  3  Z    0.182392   0.133606   0.078392   0.150250   0.004923
   28  C  4  S   -0.009546   0.026658  -0.004666  -0.012230  -0.014420
   29  C  4  S    0.014498  -0.813381   0.209708   0.833818   0.977188
   30  C  4  X    0.009891  -0.233046  -0.170501  -0.050942  -0.073881
   31  C  4  Y    0.281915   0.232601  -0.269367   0.030368   0.105057
   32  C  4  Z   -0.003893   0.011406   0.005318  -0.011389   0.023051
   33  C  4  S    1.683847   1.729747  -0.125684  -1.274620  -1.246261
   34  C  4  X   -1.156253   0.603256   1.115279   0.369465   0.357688
   35  C  4  Y   -0.830554   0.212779   1.927400   0.314674   0.255810
   36  C  4  Z    0.014770  -0.044778  -0.046534  -0.034529  -0.038980
   37  H  5  S   -0.764060  -0.195967  -0.121221  -0.140752  -0.239433
   38  H  5  S   -0.194439  -0.695910   0.156744  -0.351740  -0.502479
   39  H  6  S   -0.401080  -0.186274  -0.698169  -0.200866  -0.254054
   40  H  6  S    0.022669  -1.183873  -0.655498  -0.207738  -0.340587
   41  H  7  S    0.351433  -0.037569  -0.558839  -0.148802  -0.140176
   42  H  7  S    0.193555  -0.676693  -0.525683   0.186678   0.209147
   43  H  8  S   -0.498709   0.398505   0.521245   0.103854   0.096293
   44  H  8  S   -0.241356  -0.668479   0.681657   0.366477   0.337906

                     41         42         43         44
                    1.6093     1.6582     1.7980     3.1389
                     A          A          A          A   
    1  O  1  S    0.046168   0.002677  -0.000628   0.051506
    2  O  1  S   -0.181886  -0.012889   0.019156  -1.763455
    3  O  1  X    0.585204   0.585626   0.170862  -0.191154
    4  O  1  Y   -0.620358   0.700654   0.266192   0.135875
    5  O  1  Z   -0.115453  -0.132485  -0.010459   0.045276
    6  O  1  S    0.082581   0.106528  -0.008611   2.971813
    7  O  1  X   -0.808502  -0.770321  -0.259967   0.837515
    8  O  1  Y    0.752627  -0.960022  -0.475073  -0.626811
    9  O  1  Z    0.157240   0.169978   0.028792  -0.188254
   10  C  2  S    0.016589  -0.002073   0.032257   0.013341
   11  C  2  S    0.860624   0.182967   0.616677  -0.093973
   12  C  2  X   -0.150136  -0.115816  -0.020437   0.135603
   13  C  2  Y    0.057640  -0.163721   0.038240  -0.172313
   14  C  2  Z    0.032934   0.027495  -0.006351  -0.032933
   15  C  2  S   -0.810313   0.076326  -2.392538  -1.386277
   16  C  2  X    0.115316   0.899281  -0.313208   1.544420
   17  C  2  Y    0.244154   0.997308   1.333212  -0.143825
   18  C  2  Z   -0.001329  -0.174322   0.036177  -0.286611
   19  C  3  S   -0.000730  -0.009699  -0.038704  -0.008912
   20  C  3  S   -0.159796   0.501434  -1.636138  -0.031767
   21  C  3  X    0.168599   0.032764  -0.219575   0.060036
   22  C  3  Y   -0.062389   0.135732  -0.056630   0.031363
   23  C  3  Z   -0.018167   0.006516   0.019193  -0.003069
   24  C  3  S    0.063566  -0.582106   5.006068   0.245908
   25  C  3  X   -0.943302  -0.824430   1.763056  -0.866733
   26  C  3  Y    0.439242   0.237512   0.849515   0.321359
   27  C  3  Z    0.063405   0.050944  -0.095852   0.094460
   28  C  4  S   -0.001035  -0.004015   0.016233   0.000106
   29  C  4  S   -0.395966  -0.345805   0.945202   0.070605
   30  C  4  X   -0.010335  -0.018358   0.040054  -0.037739
   31  C  4  Y   -0.023222  -0.007763  -0.037409   0.093786
   32  C  4  Z    0.002138  -0.002342  -0.004684  -0.004012
   33  C  4  S    1.247174   1.239684  -3.498558   0.459159
   34  C  4  X   -0.237531  -0.255643   0.608294  -0.185897
   35  C  4  Y    0.330293   0.355669  -1.057819  -0.164116
   36  C  4  Z   -0.001757   0.008840  -0.010976  -0.000340
   37  H  5  S   -0.083848  -0.350352   0.118777  -0.075592
   38  H  5  S    0.164115  -0.480913   0.135279  -0.355511
   39  H  6  S   -0.140479  -0.098994   0.036061  -0.128856
   40  H  6  S   -0.278623  -0.088493   0.076334  -0.274643
   41  H  7  S   -0.051564  -0.086952   0.240115   0.044755
   42  H  7  S   -0.168430  -0.117926   0.471732   0.019962
   43  H  8  S    0.003095  -0.000044  -0.002075  -0.042723
   44  H  8  S   -0.036364  -0.035821   0.152702  -0.128382
 ...... END OF RHF CALCULATION ......
 STEP CPU TIME =     4.85 TOTAL CPU TIME =          4.9 (      0.1 MIN)
 TOTAL WALL CLOCK TIME=          5.2 SECONDS, CPU UTILIZATION IS    94.38%

     ---------------------------------------------------------------------
     PROPERTIES FOR THE B3LYP    DFT FUNCTIONAL (RHF  TYPE) DENSITY MATRIX
     ---------------------------------------------------------------------

          -----------------
          ENERGY COMPONENTS
          -----------------

         WAVEFUNCTION NORMALIZATION =       1.0000000000

                ONE ELECTRON ENERGY =    -460.9448047597
                TWO ELECTRON ENERGY =     167.6133031409
           NUCLEAR REPULSION ENERGY =     102.5933826577
                                      ------------------
                       TOTAL ENERGY =    -190.7381189612

 ELECTRON-ELECTRON POTENTIAL ENERGY =     167.6133031409
  NUCLEUS-ELECTRON POTENTIAL ENERGY =    -650.2173995274
   NUCLEUS-NUCLEUS POTENTIAL ENERGY =     102.5933826577
                                      ------------------
             TOTAL POTENTIAL ENERGY =    -380.0107137288
               TOTAL KINETIC ENERGY =     189.2725947677
                 VIRIAL RATIO (V/T) =       2.0077429286

          ---------------------------------------
          MULLIKEN AND LOWDIN POPULATION ANALYSES
          ---------------------------------------

     ATOMIC MULLIKEN POPULATION IN EACH MOLECULAR ORBITAL

                      1          2          3          4          5

                  2.000000   2.000000   2.000000   2.000000   2.000000

    1             1.992354  -0.001751   0.000000  -0.000007   1.596139
    2             0.007812   1.993210   0.000015   0.006176   0.385311
    3            -0.000298   0.005528   0.018644   1.972551   0.032501
    4            -0.000001   0.000075   1.976029   0.019131   0.003549
    5             0.000116   0.002861   0.000000  -0.000004  -0.014186
    6             0.000018   0.000077   0.000012   0.002026  -0.003224
    7            -0.000000   0.000002   0.002638  -0.000027   0.000141
    8             0.000000  -0.000001   0.002661   0.000154  -0.000232

                      6          7          8          9         10

                  2.000000   2.000000   2.000000   2.000000   2.000000

    1             0.043725   0.144417   0.103072   0.191996   0.335649
    2             0.189798   0.602829   0.586186   0.550342   0.087678
    3             0.925549   0.343450   0.476294   0.344303   0.433811
    4             0.729520   0.615752   0.235692   0.480874   0.705453
    5             0.009888   0.069178   0.251352   0.153106   0.002926
    6             0.038208   0.013367   0.224500   0.029938   0.083529
    7             0.036973   0.077257   0.114934   0.240088   0.000405
    8             0.026339   0.133751   0.007971   0.009353   0.350549

                     11         12         13         14         15

                  2.000000   2.000000   2.000000   2.000000   2.000000

    1             1.100385   0.748752   0.364100   0.357199   1.450304
    2             0.325363   0.599746   0.385224   0.008152   0.027729
    3             0.182194   0.193158   0.344401   0.764032   0.220560
    4             0.138315   0.224143   0.329788   0.869678   0.027012
    5             0.098963   0.003217   0.013265   0.000913   0.248348
    6             0.110943   0.036173   0.234800   0.000011   0.011598
    7             0.032239   0.079371   0.207463   0.000012   0.003712
    8             0.011597   0.115439   0.120959   0.000004   0.010738

               ----- POPULATIONS IN EACH AO -----
                             MULLIKEN      LOWDIN
              1  O  1  S      1.98586     1.98057
              2  O  1  S      0.43932     0.59441
              3  O  1  X      0.72521     0.71141
              4  O  1  Y      0.82822     0.82356
              5  O  1  Z      0.55668     0.54214
              6  O  1  S      1.55177     1.05277
              7  O  1  X      0.77096     0.83384
              8  O  1  Y      0.88747     0.93507
              9  O  1  Z      0.68084     0.69761
             10  C  2  S      1.98519     1.97479
             11  C  2  S      0.42986     0.44377
             12  C  2  X      0.61344     0.57345
             13  C  2  Y      0.61056     0.57235
             14  C  2  Z      0.39644     0.37757
             15  C  2  S      0.76612     0.56007
             16  C  2  X      0.21073     0.44417
             17  C  2  Y      0.29322     0.47280
             18  C  2  Z      0.45002     0.47644
             19  C  3  S      1.98616     1.97523
             20  C  3  S      0.40386     0.43554
             21  C  3  X      0.63182     0.58995
             22  C  3  Y      0.60380     0.57340
             23  C  3  Z      0.43698     0.41598
             24  C  3  S      0.95431     0.56890
             25  C  3  X      0.38271     0.52356
             26  C  3  Y      0.30667     0.50551
             27  C  3  Z      0.55035     0.56944
             28  C  4  S      1.98528     1.97554
             29  C  4  S      0.40667     0.43241
             30  C  4  X      0.62732     0.58636
             31  C  4  Y      0.60658     0.56242
             32  C  4  Z      0.40789     0.39313
             33  C  4  S      0.97998     0.58141
             34  C  4  X      0.36274     0.52056
             35  C  4  Y      0.44761     0.54258
             36  C  4  Z      0.53095     0.54828
             37  H  5  S      0.48211     0.48163
             38  H  5  S      0.35783     0.47069
             39  H  6  S      0.47505     0.46631
             40  H  6  S      0.30693     0.42303
             41  H  7  S      0.47529     0.46424
             42  H  7  S      0.31991     0.43358
             43  H  8  S      0.47582     0.46499
             44  H  8  S      0.31346     0.42856

          ----- MULLIKEN ATOMIC OVERLAP POPULATIONS -----
          (OFF-DIAGONAL ELEMENTS NEED TO BE MULTIPLIED BY 2)

             1           2           3           4           5

    1    8.0437101
    2    0.5088551   4.8293953
    3   -0.0720196   0.1790422   5.6070872
    4    0.0032412  -0.0410539   0.3926099   5.2645494
    5   -0.0575315   0.3148257  -0.1330280   0.0162252   0.6911506
    6    0.0000889  -0.0346447   0.3740050  -0.0376002   0.0032661
    7    0.0000115  -0.0034326  -0.0523742   0.3833300   0.0051222
    8   -0.0000210   0.0025828  -0.0386454   0.3737091  -0.0000859

             6           7           8

    6    0.4775694
    7    0.0027607   0.4862353
    8   -0.0034697  -0.0264456   0.4816562

          TOTAL MULLIKEN AND LOWDIN ATOMIC POPULATIONS
       ATOM         MULL.POP.    CHARGE          LOW.POP.     CHARGE
    1 O             8.426335   -0.426335         8.171379   -0.171379
    2 C             5.755570    0.244430         5.895409    0.104591
    3 C             6.256677   -0.256677         6.157506   -0.157506
    4 C             6.355011   -0.355011         6.142681   -0.142681
    5 H             0.839944    0.160056         0.952324    0.047676
    6 H             0.781975    0.218025         0.889335    0.110665
    7 H             0.795207    0.204793         0.897816    0.102184
    8 H             0.789281    0.210719         0.893550    0.106450

          -------------------------------
          BOND ORDER AND VALENCE ANALYSIS     BOND ORDER THRESHOLD=0.050
          -------------------------------

                   BOND                       BOND                       BOND
  ATOM PAIR DIST  ORDER      ATOM PAIR DIST  ORDER      ATOM PAIR DIST  ORDER
    1   2  1.225  1.824        1   4  3.571  0.105        1   5  2.037  0.057
    2   3  1.481  0.959        2   5  1.101  0.837        3   4  1.344  1.801
    3   6  1.081  0.914        4   7  1.083  0.925        4   8  1.083  0.924

                       TOTAL       BONDED        FREE
      ATOM            VALENCE     VALENCE     VALENCE
    1 O                 2.045       2.045       0.000
    2 C                 3.617       3.617      -0.000
    3 C                 3.697       3.697       0.000
    4 C                 3.739       3.739       0.000
    5 H                 0.911       0.911       0.000
    6 H                 0.921       0.921      -0.000
    7 H                 0.926       0.926      -0.000
    8 H                 0.922       0.922       0.000

          ---------------------
          ELECTROSTATIC MOMENTS
          ---------------------

 POINT   1           X           Y           Z (BOHR)    CHARGE
                 0.000005    0.000002   -0.000000        0.00 (A.U.)
         DX          DY          DZ         /D/  (DEBYE)
     2.084327   -1.968357   -0.363874    2.889853
 ...... END OF PROPERTY EVALUATION ......
 STEP CPU TIME =     0.01 TOTAL CPU TIME =          4.9 (      0.1 MIN)
 TOTAL WALL CLOCK TIME=          5.2 SECONDS, CPU UTILIZATION IS    94.03%

 BEGINNING ONE ELECTRON GRADIENT...
 ..... END OF 1-ELECTRON GRADIENT ......
 STEP CPU TIME =     0.00 TOTAL CPU TIME =          4.9 (      0.1 MIN)
 TOTAL WALL CLOCK TIME=          5.2 SECONDS, CPU UTILIZATION IS    93.67%

          ----------------------
          GRADIENT OF THE ENERGY
          ----------------------
 MEMORY FOR GRID POINT CONTRIBUTIONS TO THE DFT GRADIENT=    527831 WORDS.
 STEP CPU TIME =     1.20 TOTAL CPU TIME =          6.1 (      0.1 MIN)
 TOTAL WALL CLOCK TIME=          6.4 SECONDS, CPU UTILIZATION IS    94.70%
 THE COARSE/FINE SCHWARZ SCREENINGS SKIPPED         3965/        1786 BLOCKS.
 THE NUMBER OF GRADIENT INTEGRAL BLOCKS COMPUTED WAS     16296
 ...... END OF 2-ELECTRON GRADIENT ......
 STEP CPU TIME =     0.03 TOTAL CPU TIME =          6.1 (      0.1 MIN)
 TOTAL WALL CLOCK TIME=          6.5 SECONDS, CPU UTILIZATION IS    94.44%

          NSERCH=  0     ENERGY=    -190.7381190

                                 -----------------------
                                 GRADIENT (HARTREE/BOHR)
                                 -----------------------
        ATOM     ZNUC       DE/DX         DE/DY         DE/DZ
 --------------------------------------------------------------
    1  O            8.0     0.0128849    -0.0139776    -0.0008666
    2  C            6.0     0.0006703     0.0137017    -0.0018552
    3  C            6.0    -0.0201763    -0.0004746     0.0032402
    4  C            6.0     0.0147235    -0.0010596    -0.0001858
    5  H            1.0    -0.0054120     0.0022813     0.0000331
    6  H            1.0     0.0024102     0.0002813    -0.0010079
    7  H            1.0    -0.0016895    -0.0020203     0.0010760
    8  H            1.0    -0.0034111     0.0012678    -0.0004337

          MAXIMUM GRADIENT = 0.0201763    RMS GRADIENT = 0.0072239

 NSERCH:   0  E=     -190.7381189612  GRAD. MAX=  0.0201763  R.M.S.=  0.0072239

          FORCE CONSTANT MATRIX NOT UPDATED --- TAKING FIRST STEP
          MIN SEARCH, CORRECT HESSIAN, TRYING PURE NR STEP
               NR STEP HAS LENGTH         = 152.194707
          TRIM/QA LAMBDA FOR NON-TS MODES =  -0.01444908
          TRIM/QA STEP HAS LENGTH         =   0.300000
          RADIUS OF STEP TAKEN=   0.30000  CURRENT TRUST RADIUS=   0.30000

 BEGINNING GEOMETRY SEARCH POINT NSERCH=   1 ...

 COORDINATES OF ALL ATOMS ARE (ANGS)
   ATOM   CHARGE       X              Y              Z
 ------------------------------------------------------------
 O           8.0  -1.0901866232   1.3871632920   0.1064956786
 C           6.0  -0.0472275705   0.7147313244   0.0302418757
 C           6.0   0.0230931343  -0.7580663507  -0.1085619080
 C           6.0   1.1589638801  -1.4567163652  -0.0989237987
 H           1.0   0.9256091588   1.1994837293  -0.2106529470
 H           1.0  -0.9419187565  -1.2490583044   0.0350275465
 H           1.0   2.1234077666  -0.9508269100  -0.1537449283
 H           1.0   1.1966590104  -2.5386004155  -0.0629415188

          INTERNUCLEAR DISTANCES (ANGS.)
          ------------------------------

                1 O          2 C          3 C          4 C          5 H     

   1 O       0.0000000    1.2432791 *  2.4264484 *  3.6316011    2.0492046 *
   2 C       1.2432791 *  0.0000000    1.4809944 *  2.4873212 *  1.1132953 *
   3 C       2.4264484 *  1.4809944 *  0.0000000    1.3335693 *  2.1579991 *
   4 C       3.6316011    2.4873212 *  1.3335693 *  0.0000000    2.6687706 *
   5 H       2.0492046 *  1.1132953 *  2.1579991 *  2.6687706 *  0.0000000  
   6 H       2.6413548 *  2.1580002 *  1.0922175 *  2.1153659 *  3.0892357  
   7 H       3.9826012    2.7421877 *  2.1096255 *  1.0904501 *  2.4620715 *
   8 H       4.5464264    3.4842653    2.1329884 *  1.0831384 *  3.7508079  

                6 H          7 H          8 H     

   1 O       2.6413548 *  3.9826012    4.5464264  
   2 C       2.1580002 *  2.7421877 *  3.4842653  
   3 C       1.0922175 *  2.1096255 *  2.1329884 *
   4 C       2.1153659 *  1.0904501 *  1.0831384 *
   5 H       3.0892357    2.4620715 *  3.7508079  
   6 H       0.0000000    3.0855800    2.4992062 *
   7 H       3.0855800    0.0000000    1.8406882 *
   8 H       2.4992062 *  1.8406882 *  0.0000000  

  * ... LESS THAN  3.000

 ...... END OF ONE-ELECTRON INTEGRALS ......
 STEP CPU TIME =     0.00 TOTAL CPU TIME =          6.1 (      0.1 MIN)
 TOTAL WALL CLOCK TIME=          6.5 SECONDS, CPU UTILIZATION IS    94.44%
  ...... END OF TWO-ELECTRON INTEGRALS .....
 STEP CPU TIME =     0.00 TOTAL CPU TIME =          6.1 (      0.1 MIN)
 TOTAL WALL CLOCK TIME=          6.5 SECONDS, CPU UTILIZATION IS    94.00%

          --------------------------
             R-B3LYP SCF CALCULATION
          --------------------------
         DENSITY MATRIX CONVERGENCE THRESHOLD=  1.00E-04
     COARSE -> FINE DFT GRID SWITCH THRESHOLD=  1.50E-03 (SWITCH IN $DFT)
                   HF -> DFT SWITCH THRESHOLD=  5.00E-03 (SWOFF IN $DFT)

 DIRECT SCF CALCULATION, SCHWRZ=T   FDIFF=T,  DIRTHR=  0.00E+00 NITDIR=10

 DFT CODE IS SWITCHING FROM THE FINE GRID NRAD= 96,  NLEB=  590
                      TO THE COARSE GRID NRAD0= 24, NLEB0=  110

                                                                                   NONZERO     BLOCKS
 ITER EX DEM     TOTAL ENERGY        E CHANGE  DENSITY CHANGE    DIIS ERROR      INTEGRALS    SKIPPED
          * * *   INITIATING DIIS PROCEDURE   * * *
   1  0  0     -190.7206322888  -190.7206322888   0.050442435   0.053620925         433689       3422
   2  1  0     -190.7343543197    -0.0137220309   0.010682848   0.007700265         431273       4311
   3  2  0     -190.7344554550    -0.0001011354   0.011139705   0.004947345         426456       5074
   4  3  0     -190.7345111883    -0.0000557332   0.003642943   0.003846229         424345       5321
   5  4  0     -190.7345349351    -0.0000237468   0.000524496   0.001138389         420395       5689
 DFT CODE IS SWITCHING BACK TO THE FINE GRID
          * * *   INITIATING DIIS PROCEDURE   * * *
   6  5  0     -190.7338890406     0.0006458944   0.001053924   0.000653115         433683       3421
   7  6  0     -190.7338912278    -0.0000021872   0.000863302   0.000815035         420166       5625
   8  7  0     -190.7338914153    -0.0000001875   0.000368503   0.000925941         416290       5969
   9  8  0     -190.7338924947    -0.0000010794   0.000184286   0.000137738         411530       6403
  10  9  0     -190.7338925388    -0.0000000441   0.000035485   0.000034874         399398       7264
  11 10  0     -190.7338925412    -0.0000000024   0.000005212   0.000006155         388244       7911

          -----------------
          DENSITY CONVERGED
          -----------------
     TIME TO FORM FOCK OPERATORS=       4.5 SECONDS (       0.4 SEC/ITER)
     FOCK TIME ON FIRST ITERATION=       0.0, LAST ITERATION=       0.7
     TIME TO SOLVE SCF EQUATIONS=       0.0 SECONDS (       0.0 SEC/ITER)

 FINAL R-B3LYP ENERGY IS     -190.7338925412 AFTER  11 ITERATIONS
 DFT EXCHANGE + CORRELATION ENERGY =       -21.0744163849
 TOTAL ELECTRON NUMBER             =        29.9999950194
 ...... END OF RHF CALCULATION ......
 STEP CPU TIME =     4.64 TOTAL CPU TIME =         10.8 (      0.2 MIN)
 TOTAL WALL CLOCK TIME=         12.1 SECONDS, CPU UTILIZATION IS    88.70%
 ..... END OF 1-ELECTRON GRADIENT ......
 STEP CPU TIME =     0.01 TOTAL CPU TIME =         10.8 (      0.2 MIN)
 TOTAL WALL CLOCK TIME=         12.2 SECONDS, CPU UTILIZATION IS    88.49%
 MEMORY FOR GRID POINT CONTRIBUTIONS TO THE DFT GRADIENT=    527831 WORDS.
 STEP CPU TIME =     1.19 TOTAL CPU TIME =         11.9 (      0.2 MIN)
 TOTAL WALL CLOCK TIME=         13.6 SECONDS, CPU UTILIZATION IS    87.80%
 ...... END OF 2-ELECTRON GRADIENT ......
 STEP CPU TIME =     0.02 TOTAL CPU TIME =         12.0 (      0.2 MIN)
 TOTAL WALL CLOCK TIME=         13.6 SECONDS, CPU UTILIZATION IS    87.76%

          NSERCH=  1     ENERGY=    -190.7338925

                                 -----------------------
                                 GRADIENT (HARTREE/BOHR)
                                 -----------------------
        ATOM     ZNUC       DE/DX         DE/DY         DE/DZ
 --------------------------------------------------------------
    1  O            8.0    -0.0090064     0.0111583    -0.0107606
    2  C            6.0     0.0004075    -0.0093148     0.0395275
    3  C            6.0     0.0172746     0.0032749    -0.0290070
    4  C            6.0    -0.0079384    -0.0068752     0.0060640
    5  H            1.0    -0.0013914     0.0000073    -0.0122611
    6  H            1.0    -0.0024580     0.0008527     0.0062331
    7  H            1.0     0.0007076     0.0002500    -0.0014420
    8  H            1.0     0.0024045     0.0006467     0.0016460

          MAXIMUM GRADIENT = 0.0395275    RMS GRADIENT = 0.0120378

 NSERCH:   1  E=     -190.7338925412  GRAD. MAX=  0.0395275  R.M.S.=  0.0120378

          HESSIAN UPDATED USING THE BFGS FORMULA
             ACTUAL ENERGY CHANGE WAS   0.0042264200
          PREDICTED ENERGY CHANGE WAS  -0.0026447592 RATIO= -1.598
          MIN SEARCH, CORRECT HESSIAN, TRYING PURE NR STEP
               NR STEP HAS LENGTH         =  33.640849
          TRIM/QA LAMBDA FOR NON-TS MODES =  -0.16925735
          TRIM/QA STEP HAS LENGTH         =   0.150000
          RADIUS OF STEP TAKEN=   0.15000  CURRENT TRUST RADIUS=   0.15000

 BEGINNING GEOMETRY SEARCH POINT NSERCH=   2 ...

 COORDINATES OF ALL ATOMS ARE (ANGS)
   ATOM   CHARGE       X              Y              Z
 ------------------------------------------------------------
 O           8.0  -1.0870429840   1.3873097752   0.1233264931
 C           6.0  -0.0567256896   0.7137234618  -0.0291093984
 C           6.0   0.0230950150  -0.7587135759  -0.0667316366
 C           6.0   1.1567355368  -1.4530906975  -0.1085214163
 H           1.0   0.9340461103   1.1961709935  -0.1913224805
 H           1.0  -0.9431286478  -1.2511912919   0.0272466439
 H           1.0   2.1232541105  -0.9489213238  -0.1533474790
 H           1.0   1.1981665489  -2.5371773414  -0.0646007262

          INTERNUCLEAR DISTANCES (ANGS.)
          ------------------------------

                1 O          2 C          3 C          4 C          5 H     

   1 O       0.0000000    1.2403665 *  2.4236222 *  3.6271436    2.0543464 *
   2 C       1.2403665 *  0.0000000    1.4750788 *  2.4847290 *  1.1138660 *
   3 C       2.4236222 *  1.4750788 *  0.0000000    1.3300552 *  2.1603075 *
   4 C       3.6271436    2.4847290 *  1.3300552 *  0.0000000    2.6598936 *
   5 H       2.0543464 *  1.1138660 *  2.1603075 *  2.6598936 *  0.0000000  
   6 H       2.6441692 *  2.1563340 *  1.0885561 *  2.1139125 *  3.0921093  
   7 H       3.9800165    2.7444735 *  2.1105330 *  1.0910336 *  2.4529735 *
   8 H       4.5452281    3.4848774    2.1316029 *  1.0857667 *  3.7448241  

                6 H          7 H          8 H     

   1 O       2.6441692 *  3.9800165    4.5452281  
   2 C       2.1563340 *  2.7444735 *  3.4848774  
   3 C       1.0885561 *  2.1105330 *  2.1316029 *
   4 C       2.1139125 *  1.0910336 *  1.0857667 *
   5 H       3.0921093    2.4529735 *  3.7448241  
   6 H       0.0000000    3.0865328    2.4994682 *
   7 H       3.0865328    0.0000000    1.8401685 *
   8 H       2.4994682 *  1.8401685 *  0.0000000  

  * ... LESS THAN  3.000

 ...... END OF ONE-ELECTRON INTEGRALS ......
 STEP CPU TIME =     0.01 TOTAL CPU TIME =         12.0 (      0.2 MIN)
 TOTAL WALL CLOCK TIME=         13.6 SECONDS, CPU UTILIZATION IS    87.83%
  ...... END OF TWO-ELECTRON INTEGRALS .....
 STEP CPU TIME =     0.00 TOTAL CPU TIME =         12.0 (      0.2 MIN)
 TOTAL WALL CLOCK TIME=         13.7 SECONDS, CPU UTILIZATION IS    87.70%

          --------------------------
             R-B3LYP SCF CALCULATION
          --------------------------
         DENSITY MATRIX CONVERGENCE THRESHOLD=  1.00E-04
     COARSE -> FINE DFT GRID SWITCH THRESHOLD=  1.50E-03 (SWITCH IN $DFT)
                   HF -> DFT SWITCH THRESHOLD=  5.00E-03 (SWOFF IN $DFT)

 DIRECT SCF CALCULATION, SCHWRZ=T   FDIFF=T,  DIRTHR=  0.00E+00 NITDIR=10

 DFT CODE IS SWITCHING FROM THE FINE GRID NRAD= 96,  NLEB=  590
                      TO THE COARSE GRID NRAD0= 24, NLEB0=  110

                                                                                   NONZERO     BLOCKS
 ITER EX DEM     TOTAL ENERGY        E CHANGE  DENSITY CHANGE    DIIS ERROR      INTEGRALS    SKIPPED
          * * *   INITIATING DIIS PROCEDURE   * * *
   1  0  0     -190.7350109249  -190.7350109249   0.030864064   0.033584264         433652       3413
   2  1  0     -190.7395603331    -0.0045494081   0.006537199   0.004155809         430245       4558
   3  2  0     -190.7395774846    -0.0000171515   0.005647640   0.004143432         424457       5285
   4  3  0     -190.7396099874    -0.0000325028   0.001450973   0.001603135         422247       5489
 DFT CODE IS SWITCHING BACK TO THE FINE GRID
          * * *   INITIATING DIIS PROCEDURE   * * *
   5  4  0     -190.7384806720     0.0011293154   0.001289660   0.001183630         433652       3411
   6  5  0     -190.7384814918    -0.0000008198   0.001120128   0.001847097         420377       5605
   7  6  0     -190.7384839379    -0.0000024461   0.000883517   0.001102531         418354       5919
   8  7  0     -190.7384851546    -0.0000012167   0.000271489   0.000153688         413066       6229
   9  8  0     -190.7384852290    -0.0000000744   0.000045221   0.000066023         402909       6947
  10  9  0     -190.7384852375    -0.0000000085   0.000009917   0.000012608         391652       7726

          -----------------
          DENSITY CONVERGED
          -----------------
     TIME TO FORM FOCK OPERATORS=       4.4 SECONDS (       0.4 SEC/ITER)
     FOCK TIME ON FIRST ITERATION=       0.1, LAST ITERATION=       0.7
     TIME TO SOLVE SCF EQUATIONS=       0.0 SECONDS (       0.0 SEC/ITER)

 FINAL R-B3LYP ENERGY IS     -190.7384852375 AFTER  10 ITERATIONS
 DFT EXCHANGE + CORRELATION ENERGY =       -21.0795836584
 TOTAL ELECTRON NUMBER             =        29.9999998279
 ...... END OF RHF CALCULATION ......
 STEP CPU TIME =     4.57 TOTAL CPU TIME =         16.5 (      0.3 MIN)
 TOTAL WALL CLOCK TIME=         23.0 SECONDS, CPU UTILIZATION IS    71.93%
 ..... END OF 1-ELECTRON GRADIENT ......
 STEP CPU TIME =     0.00 TOTAL CPU TIME =         16.5 (      0.3 MIN)
 TOTAL WALL CLOCK TIME=         23.0 SECONDS, CPU UTILIZATION IS    71.80%
 MEMORY FOR GRID POINT CONTRIBUTIONS TO THE DFT GRADIENT=    527831 WORDS.
 STEP CPU TIME =     1.19 TOTAL CPU TIME =         17.7 (      0.3 MIN)
 TOTAL WALL CLOCK TIME=         24.7 SECONDS, CPU UTILIZATION IS    71.82%
 ...... END OF 2-ELECTRON GRADIENT ......
 STEP CPU TIME =     0.02 TOTAL CPU TIME =         17.8 (      0.3 MIN)
 TOTAL WALL CLOCK TIME=         24.7 SECONDS, CPU UTILIZATION IS    71.79%

          NSERCH=  2     ENERGY=    -190.7384852

                                 -----------------------
                                 GRADIENT (HARTREE/BOHR)
                                 -----------------------
        ATOM     ZNUC       DE/DX         DE/DY         DE/DZ
 --------------------------------------------------------------
    1  O            8.0    -0.0062740     0.0096965    -0.0001072
    2  C            6.0    -0.0057827    -0.0094632     0.0069215
    3  C            6.0     0.0188141     0.0018677    -0.0075254
    4  C            6.0    -0.0110843    -0.0033369    -0.0004587
    5  H            1.0     0.0015087     0.0008148    -0.0026429
    6  H            1.0    -0.0013465     0.0015031     0.0015363
    7  H            1.0     0.0014507     0.0000010     0.0008533
    8  H            1.0     0.0027140    -0.0010829     0.0014230

          MAXIMUM GRADIENT = 0.0188141    RMS GRADIENT = 0.0060634

 NSERCH:   2  E=     -190.7384852375  GRAD. MAX=  0.0188141  R.M.S.=  0.0060634

          HESSIAN UPDATED USING THE BFGS FORMULA
             ACTUAL ENERGY CHANGE WAS  -0.0045926963
[...]

          ATOMIC WEIGHTS (AMU)

    1     O                15.99491
    2     C                12.00000
    3     C                12.00000
    4     C                12.00000
    5     H                 1.00782
    6     H                 1.00782
    7     H                 1.00782
    8     H                 1.00782

 MODES    1 TO    6 ARE TAKEN AS ROTATIONS AND TRANSLATIONS.

 ANALYZING SYMMETRY OF NORMAL MODES...

     FREQUENCIES IN CM**-1, IR INTENSITIES IN DEBYE**2/AMU-ANGSTROM**2,
     REDUCED MASSES IN AMU.

                            1           2           3           4           5
       FREQUENCY:        13.55        7.04        2.63        0.17        0.01  
        SYMMETRY:         A           A           A           A           A   
    REDUCED MASS:      1.62114     4.73127     5.51435     7.02634     6.99668
    IR INTENSITY:      0.02177     0.07583     0.08231     0.00003     0.00001

  1   O            X  0.00205832  0.12467591 -0.01091883  0.10137729 -0.08066386
                   Y -0.00006618  0.09717727  0.00113841  0.07639560  0.10640349
                   Z  0.02686443 -0.00530171 -0.15625702  0.04354956 -0.00110905
  2   C            X -0.00915260  0.06231794 -0.00392834  0.10132383 -0.08029943
                   Y -0.00140983  0.00353235 -0.00075142  0.07639201  0.10704427
                   Z -0.11410319 -0.00375521 -0.04331093  0.04249381 -0.00197556
  3   C            X  0.01178649 -0.07171893  0.00029116  0.10124677 -0.07939980
                   Y  0.00168999  0.00057936  0.00051378  0.07638275  0.10706190
                   Z  0.13604817  0.00406592  0.06729177  0.04120464 -0.00228838
  4   C            X -0.00270717 -0.13178778  0.00785489  0.10116595 -0.07906161
                   Y -0.00025379 -0.10496822 -0.00190862  0.07639057  0.10778034
                   Z -0.04079567  0.00557786  0.18549156  0.04010177 -0.00326653
  5   H            X -0.03674916  0.10324266 -0.00014327  0.10128964 -0.08064169
                   Y -0.00525651 -0.08873261 -0.00367633  0.07641047  0.10767418
                   Z -0.44991404 -0.00834544 -0.01483135  0.04243419 -0.00258413
  6   H            X  0.03920669 -0.11766111 -0.00303919  0.10121899 -0.07902292
                   Y  0.00558616  0.08775610  0.00339383  0.07639461  0.10645602
                   Z  0.46709387  0.00837247  0.04706957  0.04122090 -0.00165563
  7   H            X -0.03023264 -0.08351639  0.01109698  0.10112292 -0.07944772
                   Y -0.00407274 -0.19112228 -0.00488567  0.07642121  0.10836492
                   Z -0.37365111  0.00120562  0.20300923  0.04011577 -0.00388770
  8   H            X  0.01196957 -0.23006915  0.01109827  0.10108017 -0.07839905
                   Y  0.00170234 -0.10989601 -0.00118136  0.07640010  0.10780895
                   Z  0.13585662  0.01120871  0.26825625  0.03915639 -0.00348798

 TRANS. SAYVETZ    X  0.01611411 -0.03065584 -0.10487178  5.67423795 -4.47533708
                   Y -0.00279889  0.03970561 -0.01394572  4.27994263  5.99822369
                   Z -0.01885502 -0.00159871  0.52179545  2.34637618 -0.11981108
               TOTAL  0.02496017  0.05018836  0.53241249  7.48467544  7.48476346

   ROT. SAYVETZ    X -3.89499696 -1.12225418-16.24504819  0.16827423  0.09568641
                   Y  4.74541447  0.16669249-11.26164759  0.11212128  0.07152667
                   Z  0.32478725-20.72713315  0.72233697 -0.01045015  0.13525957
               TOTAL  6.14780014 20.75816200 19.77999160  0.20247618  0.18046358

                            6           7           8           9          10
       FREQUENCY:         0.17      190.04      323.73      568.98      624.88  
        SYMMETRY:         A           A           A           A           A   
    REDUCED MASS:      7.44305     3.41143     2.75565     5.04367     1.17768
    IR INTENSITY:      0.00042     0.05793     0.17488     0.11605     0.29246

  1   O            X -0.03409227  0.00967087 -0.07339708 -0.04456956  0.00017713
                   Y -0.02355669  0.00158533 -0.07429155  0.14766604 -0.00016405
                   Z  0.13821227  0.11986175  0.00701026  0.00175238  0.00099914
  2   C            X -0.03461233 -0.01095066  0.04844766 -0.10983105  0.00233064
                   Y -0.02342835 -0.00170499  0.09624886  0.01704221  0.00037522
                   Z  0.12989541 -0.13252567 -0.00513390  0.00889313  0.02643192
  3   C            X -0.03486609 -0.01022879  0.09185888  0.07439738 -0.00915413
                   Y -0.02350757 -0.00158720  0.10574582 -0.06572294 -0.00128490
                   Z  0.12283073 -0.12467604 -0.00897435 -0.00529141 -0.11032747
  4   C            X -0.03544324  0.00878484 -0.02796368  0.08241230  0.00088913
                   Y -0.02335172  0.00133976 -0.10311002 -0.10590563  0.00017804
                   Z  0.11398332  0.10470199  0.00360487 -0.00549907  0.01253755
  5   H            X -0.03496344 -0.02722705 -0.01745017 -0.09939113  0.03211865
                   Y -0.02323936 -0.00426309  0.22966039 -0.00217705  0.00523625
                   Z  0.12698564 -0.33180499 -0.00137972  0.00883470  0.39168226
  6   H            X -0.03455307 -0.01460396  0.03014320  0.13078024  0.02447875
                   Y -0.02370242 -0.00238831  0.21567715 -0.18165413  0.00410065
                   Z  0.12525455 -0.17865790 -0.00567495 -0.00804989  0.29917839
  7   H            X -0.03575727  0.01661947  0.09527578  0.13669362 -0.03872194
                   Y -0.02316015  0.00247736 -0.32592047 -0.20365343 -0.00517227
                   Z  0.11173523  0.19989706 -0.00355742 -0.00957762 -0.46604126
  8   H            X -0.03564043  0.01896641 -0.28083571 -0.02021894  0.05024349
                   Y -0.02339876  0.00268283 -0.11785232 -0.11540618  0.00678839
                   Z  0.10869632  0.22514684  0.02431107  0.00369997  0.60837040

 TRANS. SAYVETZ    X -1.94637961 -0.00034458 -0.00008482 -0.00012176  0.00027287
                   Y -1.31447115  0.00042515 -0.00009384  0.00004276 -0.00036501
                   Z  7.08757673  0.00109385 -0.00010594  0.00012811 -0.00060535
               TOTAL  7.46659038  0.00122311  0.00016500  0.00018184  0.00075772

   ROT. SAYVETZ    X  1.13127748 -0.02290160  0.00058941  0.00024096  0.00561821
                   Y  0.80585529 -0.04714980  0.00291421  0.00042072  0.00061961
                   Z -0.05124799  0.01747047 -0.01324134  0.00451738 -0.00581698
               TOTAL  1.38989850  0.05525219  0.01357104  0.00454333  0.00811082

                           11          12          13          14          15
       FREQUENCY:       932.66     1012.71     1052.83     1062.80     1170.36  
        SYMMETRY:         A           A           A           A           A   
    REDUCED MASS:      1.83081     1.30063     1.40597     1.37553     1.93539
    IR INTENSITY:      0.79640     1.36827     0.16018     0.17220     0.59577

  1   O            X -0.03392288 -0.00108416 -0.00175323  0.00286239  0.00940889
                   Y  0.00515792 -0.00016764 -0.00027270  0.00047178  0.02349184
                   Z  0.00273143 -0.01268510 -0.02155393  0.03444513 -0.00112459
  2   C            X  0.06267080  0.00382487  0.00676683 -0.01226299 -0.07108876
                   Y  0.13085792  0.00072138  0.00097719 -0.00214878 -0.12529905
                   Z -0.00684943  0.04621977  0.08346140 -0.14816821  0.00759950
  3   C            X -0.02627025  0.00053289 -0.01008795  0.00170596  0.07155319
                   Y -0.09142802  0.00003588 -0.00142142  0.00044606  0.11091736
                   Z  0.00325791  0.00707008 -0.12214478  0.01959076 -0.00723768
  4   C            X -0.00569997 -0.01103206  0.00466078 -0.00111409 -0.00603526
                   Y -0.09531687 -0.00161558  0.00069168 -0.00019575 -0.06634331
                   Z  0.00173556 -0.13391604  0.05537792 -0.01388024  0.00127794
  5   H            X  0.02439186 -0.01393060 -0.02391756  0.05054730 -0.08264225
                   Y  0.20938446 -0.00224383 -0.00412780  0.00763627 -0.10678676
                   Z -0.00437863 -0.17178469 -0.29354647  0.62117599  0.00714074
  6   H            X -0.14131623  0.01358060  0.05516115  0.03186361 -0.14377439
                   Y  0.11989989  0.00195090  0.00827650  0.00553144  0.52307922
                   Z  0.01082095  0.16524765  0.66907411  0.38903380  0.00495736
  7   H            X -0.22609374  0.05214802  0.01091855  0.02842493 -0.15291337
                   Y  0.32111216  0.00731539  0.00119919  0.00421995  0.21685409
                   Z  0.01509364  0.63084910  0.12893619  0.34478868  0.00976648
  8   H            X  0.51581738  0.04486387 -0.03028540 -0.01724296  0.29608096
                   Y -0.06682573  0.00587751 -0.00396876 -0.00233402 -0.04486299
                   Z -0.04280090  0.53706742 -0.36117890 -0.20551451 -0.02353201

 TRANS. SAYVETZ    X -0.00003510 -0.00001430  0.00000279  0.00005540 -0.00025618
                   Y -0.00000585  0.00001981 -0.00000247 -0.00006414 -0.00006327
                   Z -0.00001383  0.00005613 -0.00001244 -0.00006688  0.00000881
               TOTAL  0.00003818  0.00006122  0.00001298  0.00010796  0.00026403

   ROT. SAYVETZ    X -0.00049127 -0.00230475  0.00063342  0.00011979 -0.00091563
                   Y -0.00132455 -0.00121004  0.00127536 -0.00008873 -0.00086655
                   Z -0.00236192  0.00092670  0.00001204 -0.00108419  0.00235495
               TOTAL  0.00275217  0.00276312  0.00142405  0.00109439  0.00267116

                           16          17          18          19          20
       FREQUENCY:      1329.05     1430.80     1495.31     1688.28     1719.27  
        SYMMETRY:         A           A           A           A           A   
    REDUCED MASS:      1.40227     1.17988     1.24231     3.95777     6.96538
    IR INTENSITY:      0.04333     0.11102     0.25869     0.18101     2.96570

  1   O            X -0.01272442  0.06345362  0.04015086  0.05234886 -0.10791495
                   Y  0.00836372 -0.00195674 -0.01698688 -0.04045155  0.07387148
                   Z  0.00092846 -0.00516491 -0.00305311 -0.00375057  0.00785761
  2   C            X  0.00989174 -0.03343524 -0.02279754 -0.05831265  0.16610509
                   Y  0.00362148 -0.04440210 -0.01676375  0.04526689 -0.13215991
                   Z -0.00084582  0.00334394  0.00204729  0.00418794 -0.01188722
  3   C            X -0.07871185  0.02824560 -0.08368198 -0.12817957 -0.06451697
                   Y -0.07867512 -0.05637659  0.08101722  0.09897672  0.04739518
                   Z  0.00749412 -0.00167159  0.00590854  0.00937943  0.00473463
  4   C            X  0.10530321 -0.01367428 -0.00918835  0.14635980  0.04664719
                   Y  0.03933009  0.02162371 -0.00870297 -0.09218591 -0.02428944
                   Z -0.00915721  0.00083432  0.00089623 -0.01097524 -0.00357164
  5   H            X  0.00604623 -0.41510153 -0.17068860 -0.03446328 -0.00593999
                   Y -0.00265867  0.75572204  0.26627754 -0.00677699  0.20464141
                   Z -0.00043577  0.02395524  0.01075883  0.00276787 -0.00208470
  6   H            X -0.43404111 -0.03325099  0.05145245 -0.02721458  0.02885815
                   Y  0.56702697  0.06092069 -0.18894323 -0.13976596 -0.12950151
                   Z  0.02853528  0.00206651 -0.00179376  0.00373657 -0.00077091
  7   H            X  0.28935548 -0.09347081  0.26545591 -0.05369192 -0.01331660
                   Y -0.28899467  0.13988888 -0.47308492  0.29764328  0.08502564
                   Z -0.02068408  0.00641029 -0.01649926  0.00089926  0.00008227
  8   H            X -0.09396819 -0.24064415  0.59411541 -0.23745407 -0.06213025
                   Y  0.01715773  0.01700336  0.00409022 -0.12889789 -0.03427063
                   Z  0.00768698  0.01967928 -0.04930045  0.02123449  0.00559599

 TRANS. SAYVETZ    X -0.00015661 -0.00002238  0.00032326  0.00014159 -0.00020585
                   Y -0.00008523 -0.00000464  0.00017731  0.00004974 -0.00020212
                   Z -0.00003567 -0.00001322  0.00011095 -0.00002229 -0.00016408
               TOTAL  0.00018183  0.00002641  0.00038503  0.00015172  0.00033189

   ROT. SAYVETZ    X -0.00022107  0.00008765  0.00081627 -0.00004353 -0.00010280
                   Y -0.00009928  0.00027147 -0.00022124  0.00033552  0.00014268
                   Z  0.00010265  0.00100649 -0.00022107 -0.00017418  0.00037463
               TOTAL  0.00026319  0.00104613  0.00087413  0.00038054  0.00041385

                           21          22          23          24
       FREQUENCY:      2888.52     3149.43     3198.60     3241.86  
        SYMMETRY:         A           A           A           A   
    REDUCED MASS:      1.08317     1.06172     1.09225     1.11194
    IR INTENSITY:      2.47380     0.10018     0.03479     0.16076

  1   O            X -0.00044766 -0.00034429  0.00065158  0.00019951
                   Y  0.00055924  0.00042409 -0.00051047 -0.00013277
                   Z  0.00003035  0.00002456 -0.00004535 -0.00001435
  2   C            X -0.07056005 -0.00000444 -0.00211649 -0.00083182
                   Y -0.03608877 -0.00155277  0.00137984  0.00063480
                   Z  0.00622459  0.00002664  0.00015771  0.00006018
  3   C            X -0.00105975  0.00121423 -0.07139094 -0.02270893
                   Y  0.00202692 -0.00586483 -0.03472876 -0.00957666
                   Z  0.00006290 -0.00002613  0.00631713  0.00199078
  4   C            X  0.00130061 -0.06627605  0.01598558 -0.02612279
                   Y -0.00056319  0.01257756  0.02058432 -0.08493453
                   Z -0.00009818  0.00535112 -0.00155034  0.00311829
  5   H            X  0.85829444  0.00760390  0.00951963  0.00423981
                   Y  0.41728609  0.00769147  0.00695398  0.00656221
                   Z -0.07542364 -0.00075594 -0.00085389 -0.00043984
  6   H            X -0.01467824  0.04906869  0.80505613  0.22582369
                   Y -0.00450423  0.02551533  0.43274249  0.11815217
                   Z  0.00127673 -0.00438201 -0.07171466 -0.02008526
  7   H            X -0.00452622  0.71232358 -0.14965903  0.40361859
                   Y -0.01080161  0.40617104 -0.08451828  0.21131212
                   Z  0.00057305 -0.06354743  0.01338947 -0.03580728
  8   H            X  0.00534300  0.01136873  0.00974206 -0.04553203
                   Y  0.00151376 -0.50742983 -0.19501266  0.78386561
                   Z -0.00048392  0.00467267  0.00133716 -0.00495696

 TRANS. SAYVETZ    X  0.00005022  0.00016917  0.00009775 -0.00001902
                   Y  0.00009598  0.00011824  0.00007863  0.00001500
                   Z  0.00011995  0.00009886  0.00007400  0.00003241
               TOTAL  0.00016162  0.00022885  0.00014565  0.00004046

   ROT. SAYVETZ    X -0.00006768  0.00005554  0.00004588  0.00002965
                   Y -0.00015699  0.00002158  0.00001634 -0.00003252
                   Z  0.00040655  0.00032219 -0.00010771  0.00046215
               TOTAL  0.00044103  0.00032765  0.00011821  0.00046424

 REFERENCE ON SAYVETZ CONDITIONS - A. SAYVETZ, J.CHEM.PHYS., 7, 383-389(1939).

 NOTE - THE MODES J,K ARE ORTHONORMALIZED ACCORDING TO
 SUM ON I   M(I) * (X(I,J)*X(I,K) + Y(I,J)*Y(I,K) + Z(I,J)*Z(I,K)) = DELTA(J,K)

  MODE FREQ(CM**-1)  SYMMETRY  RED. MASS  IR INTENS.
     1      13.552    A        1.621143    0.021766
     2       7.036    A        4.731266    0.075829
     3       2.629    A        5.514347    0.082305
     4       0.171    A        7.026341    0.000025
     5       0.011    A        6.996682    0.000008
     6       0.174    A        7.443048    0.000424
     7     190.039    A        3.411428    0.057929
     8     323.735    A        2.755647    0.174877
     9     568.979    A        5.043672    0.116046
    10     624.881    A        1.177684    0.292456
    11     932.663    A        1.830806    0.796404
    12    1012.711    A        1.300630    1.368266
    13    1052.834    A        1.405974    0.160178
    14    1062.804    A        1.375526    0.172200
    15    1170.360    A        1.935386    0.595773
    16    1329.049    A        1.402268    0.043331
    17    1430.798    A        1.179879    0.111022
    18    1495.311    A        1.242313    0.258686
    19    1688.284    A        3.957769    0.181006
    20    1719.267    A        6.965384    2.965697
    21    2888.525    A        1.083166    2.473800
    22    3149.434    A        1.061720    0.100179
    23    3198.603    A        1.092248    0.034787
    24    3241.862    A        1.111945    0.160761

     -------------------------------
     THERMOCHEMISTRY AT T=  298.15 K
     -------------------------------

 USING IDEAL GAS, RIGID ROTOR, HARMONIC NORMAL MODE APPROXIMATIONS.
 P=  1.01325E+05 PASCAL.
 ALL FREQUENCIES ARE SCALED BY   1.00000
 THE MOMENTS OF INERTIA ARE (IN AMU*BOHR**2)
             37.50400           393.47281           430.97673
 THE ROTATIONAL SYMMETRY NUMBER IS  1.0
 THE ROTATIONAL CONSTANTS ARE (IN GHZ)
     48.07723     4.58250     4.18373
      7 -     24 VIBRATIONAL MODES ARE USED IN THERMOCHEMISTRY.
 THE HARMONIC ZERO POINT ENERGY IS (SCALED BY   1.000)
        0.061693 HARTREE/MOLECULE    13540.068731 CM**-1/MOLECULE 
       38.713038 KCAL/MOL              161.975351 KJ/MOL

               Q               LN Q
 ELEC.     1.00000E+00       0.000000
 TRANS.    1.64832E+07      16.617850
 ROT.      2.85473E+04      10.259316
 VIB.      2.46104E+00       0.900583
 TOT.      1.15804E+12      27.777750

              E         H         G         CV        CP        S
           KJ/MOL    KJ/MOL    KJ/MOL   J/MOL-K   J/MOL-K   J/MOL-K
 ELEC.      0.000     0.000     0.000     0.000     0.000     0.000
 TRANS.     3.718     6.197   -41.195    12.472    20.786   158.954
 ROT.       3.718     3.718   -25.432    12.472    12.472    97.772
 VIB.     165.858   165.858   159.743    31.881    31.881    20.509
 TOTAL    173.294   175.773    93.116    56.824    65.139   277.234
 VIB. THERMAL CORRECTION E(T)-E(0) = H(T)-H(0) =      3882.150 J/MOL

              E         H         G         CV        CP        S
         KCAL/MOL  KCAL/MOL  KCAL/MOL CAL/MOL-K CAL/MOL-K CAL/MOL-K
 ELEC.      0.000     0.000     0.000     0.000     0.000     0.000
 TRANS.     0.889     1.481    -9.846     2.981     4.968    37.991
 ROT.       0.889     0.889    -6.078     2.981     2.981    23.368
 VIB.      39.641    39.641    38.179     7.620     7.620     4.902
 TOTAL     41.418    42.011    22.255    13.581    15.569    66.261
 VIB. THERMAL CORRECTION E(T)-E(0) = H(T)-H(0) =       927.856 CAL/MOL
 ......END OF NORMAL COORDINATE ANALYSIS......
 STEP CPU TIME =     0.00 TOTAL CPU TIME =        461.4 (      7.7 MIN)
 TOTAL WALL CLOCK TIME=        490.9 SECONDS, CPU UTILIZATION IS    93.99%
                601109  WORDS OF DYNAMIC MEMORY USED
 EXECUTION OF GAMESS TERMINATED NORMALLY Fri Oct  7 20:58:55 2022
 DDI: 263640 bytes (0.3 MB / 0 MWords) used by master data server.

 ----------------------------------------
 CPU timing information for all processes
 ========================================
 0: 456.622 + 4.799 = 461.422
 ----------------------------------------
 ddikick.x: exited gracefully.
----- accounting info -----
Files used on the master node chemcompute-node-1.novalocal were:
-rw-r--r--. 1 chemcomp chemcomp      955 Oct  7 20:50 /scratch/121621/461728.F05
-rw-rw-r--. 1 chemcomp chemcomp 70451200 Oct  7 20:58 /scratch/121621/461728.F10
-rw-rw-r--. 1 chemcomp chemcomp  4140256 Oct  7 20:58 /scratch/121621/461728.F22
Fri Oct  7 20:58:58 UTC 2022
0.099u 0.038s 8:14.50 0.0%	0+0k 8+208io 0pf+0w
Finishing Up...
Looking for IR data...
Looking for Raman data...
vibramans not found
Looking for thermodynamics data...
Looking for UV-Vis data...
chemcompute.org
{'UTCtimestamp': '2022-10-07T20:59:00.510531', 'cluster': 'jetstream2', 'clusterJobNumber': '121621', 'status': 'COMPLETE', 'nodeList': 'chemcompute-node-1'}
121621
